 Entering Gaussian System, Link 0=gdv
 Input=neo_small_basis_smt.gjf
 Output=neo_small_basis_smt.log
 Initial command:
 /home/software/gaussian/gdv/j19/gdv/l1.exe "/home/aodongliu/GauScr/Gau-194896.inp" -scrdir="/home/aodongliu/GauScr/" -exedir="/home/aodongliu/gaussian_scf/gau_diss/exe-dir:/home/software/gaussian/gdv/j19/gdv/bsd:/home/software/gaussian/gdv/j19/gdv/local:/home/software/gaussian/gdv/j19/gdv/extras:/home/software/gaussian/gdv/j19/gdv"
 Entering Link 1 = /home/software/gaussian/gdv/j19/gdv/l1.exe PID=    194897.
  
 Copyright (c) 1988-2021, Gaussian, Inc.  All Rights Reserved.
  
 This is the private, development version of
 the Gaussian(R) DV system of programs. It is based on
 the Gaussian(R) 16 system (copyright 2016, Gaussian, Inc.),
 the Gaussian(R) 09 system (copyright 2009, Gaussian, Inc.),
 the Gaussian(R) 03 system (copyright 2003, Gaussian, Inc.),
 the Gaussian(R) 98 system (copyright 1998, Gaussian, Inc.),
 the Gaussian(R) 94 system (copyright 1995, Gaussian, Inc.),
 the Gaussian 92(TM) system (copyright 1992, Gaussian, Inc.),
 the Gaussian 90(TM) system (copyright 1990, Gaussian, Inc.),
 the Gaussian 88(TM) system (copyright 1988, Gaussian, Inc.),
 the Gaussian 86(TM) system (copyright 1986, Carnegie Mellon
 University), and the Gaussian 82(TM) system (copyright 1983,
 Carnegie Mellon University). Gaussian is a federally registered
 trademark of Gaussian, Inc.
  
 This software contains proprietary and confidential information,
 including trade secrets, belonging to Gaussian, Inc.
  
 This software is provided under written license and may be
 used, copied, transmitted, or stored only in accord with that
 written license.
  
 The following legend is applicable only to US Government
 contracts under FAR:
  
                    RESTRICTED RIGHTS LEGEND
  
 Use, reproduction and disclosure by the US Government is
 subject to restrictions as set forth in subparagraphs (a)
 and (c) of the Commercial Computer Software - Restricted
 Rights clause in FAR 52.227-19.
  
 Gaussian, Inc.
 340 Quinnipiac St., Bldg. 40, Wallingford CT 06492
  
  
 ---------------------------------------------------------------
 Warning -- This program may not be used in any manner that
 competes with the business of Gaussian, Inc. or will provide
 assistance to any competitor of Gaussian, Inc.  The licensee
 of this program is prohibited from giving any competitor of
 Gaussian, Inc. access to this program.  By using this program,
 the user acknowledges that Gaussian, Inc. is engaged in the
 business of creating and licensing software in the field of
 computational chemistry and represents and warrants to the
 licensee that it is not a competitor of Gaussian, Inc. and that
 it will not use this program in any manner prohibited above.
 ---------------------------------------------------------------
  

 Cite this work as:
 Gaussian Development Version, Revision J.19,
 M. J. Frisch, G. W. Trucks, H. B. Schlegel, G. E. Scuseria, 
 M. A. Robb, J. R. Cheeseman, G. Scalmani, V. Barone, 
 G. A. Petersson, H. Nakatsuji, X. Li, A. V. Marenich, M. Caricato, 
 J. Bloino, B. G. Janesko, J. Zheng, R. Gomperts, B. Mennucci, 
 H. P. Hratchian, J. V. Ortiz, A. F. Izmaylov, J. L. Sonnenberg, 
 D. Williams-Young, F. Ding, F. Lipparini, F. Egidi, J. Goings, 
 B. Peng, A. Petrone, T. Henderson, D. Ranasinghe, V. G. Zakrzewski, 
 J. Gao, N. Rega, G. Zheng, W. Liang, M. Hada, M. Ehara, K. Toyota, 
 R. Fukuda, J. Hasegawa, M. Ishida, T. Nakajima, Y. Honda, O. Kitao, 
 H. Nakai, T. Vreven, K. Throssell, J. A. Montgomery, Jr., 
 J. E. Peralta, F. Ogliaro, M. J. Bearpark, J. J. Heyd, 
 E. N. Brothers, K. N. Kudin, V. N. Staroverov, T. A. Keith, 
 R. Kobayashi, J. Normand, K. Raghavachari, A. P. Rendell, 
 J. C. Burant, S. S. Iyengar, J. Tomasi, M. Cossi, J. M. Millam, 
 M. Klene, C. Adamo, R. Cammi, J. W. Ochterski, R. L. Martin, 
 K. Morokuma, O. Farkas, J. B. Foresman, and D. J. Fox, 
 Gaussian, Inc., Wallingford CT, 2020.
 
 ******************************************
 Gaussian DV:  ES64L-GDVRevJ.19 27-Nov-2021
                19-Apr-2022 
 ******************************************
 %mem=100gb
 %nproc=30
 Will use up to   30 processors via shared memory.
 ----------------------------------------------------------------------
 #p rhf/sto-3g neo=(nsh=1,lmax=1,est=4.0) gfinput guess=print # iop33(3
 =2,4=2,5=2) iop(5/73=0,5/81=0,5/91=10) nosymm
 ----------------------------------------------------------------------
 1/37=210000000,38=1,172=1/1;
 2/12=2,15=1/2;
 3/6=3,11=1,24=10,25=1,30=1,33=2,116=1,187=48,188=400000000,189=101/1,2,3;
 4/10=1,33=2/1;
 5/5=2,33=2,38=5,91=10/2;
 6/7=2,8=2,9=2,10=2,28=1/1;
 99/5=1,9=1/99;
 Leave Link    1 at Tue Apr 19 10:40:42 2022, MaxMem= 13421772800 cpu:               0.7 elap:               0.1
 (Enter /home/software/gaussian/gdv/j19/gdv/l101.exe)
 ----
 h2co
 ----
 Symbolic Z-matrix:
 Charge =  0 Multiplicity = 1
 c                     0.        0.        0. 
 o                     0.        0.        1.22 
 h                     0.93531   0.       -0.54 
 h                    -0.93531   0.       -0.54 
 
 ITRead=  0  0  0  0
 MicOpt= -1 -1 -1 -1
 NAtoms=      4 NQM=        4 NQMF=       0 NMMI=      0 NMMIF=      0
                NMic=       0 NMicF=      0.
                    Isotopes and Nuclear Properties:
 (Nuclear quadrupole moments (NQMom) in fm**2, nuclear magnetic moments (NMagM)
  in nuclear magnetons)

  Atom         1           2           3           4
 IAtWgt=          12          16           1           1
 AtmWgt=  12.0000000  15.9949146   1.0078250   1.0078250
 NucSpn=           0           0           1           1
 AtZEff=   0.0000000   0.0000000   0.0000000   0.0000000
 NQMom=    0.0000000   0.0000000   0.0000000   0.0000000
 NMagM=    0.0000000   0.0000000   2.7928460   2.7928460
 AtZNuc=   6.0000000   8.0000000   1.0000000   1.0000000
 Leave Link  101 at Tue Apr 19 10:40:43 2022, MaxMem= 13421772800 cpu:               0.4 elap:               0.2
 (Enter /home/software/gaussian/gdv/j19/gdv/l202.exe)
                          Input orientation:                          
 ---------------------------------------------------------------------
 Center     Atomic      Atomic             Coordinates (Angstroms)
 Number     Number       Type             X           Y           Z
 ---------------------------------------------------------------------
      1          6           0        0.000000    0.000000    0.000000
      2          8           0        0.000000    0.000000    1.220000
      3          1           0        0.935307    0.000000   -0.540000
      4          1           0       -0.935307    0.000000   -0.540000
 ---------------------------------------------------------------------
                    Distance matrix (angstroms):
                    1          2          3          4
     1  C    0.000000
     2  O    1.220000   0.000000
     3  H    1.080000   1.993088   0.000000
     4  H    1.080000   1.993088   1.870614   0.000000
 Symmetry turned off by external request.
 Stoichiometry    CH2O
 Framework group  C2V[C2(CO),SGV(H2)]
 Deg. of freedom     3
 Full point group                 C2V     NOp   4
 Rotational constants (GHZ):         286.6115524          38.6312366          34.0427492
 Leave Link  202 at Tue Apr 19 10:40:43 2022, MaxMem= 13421772800 cpu:               0.4 elap:               0.0
 (Enter /home/software/gaussian/gdv/j19/gdv/l301.exe)
                         Coordinates in L301:                         
 ---------------------------------------------------------------------
 Center     Atomic      Atomic             Coordinates (Angstroms)
 Number     Number       Type             X           Y           Z
 ---------------------------------------------------------------------
      1          6           0        0.000000    0.000000    0.000000
      2          8           0        0.000000    0.000000    1.220000
      3          1           0        0.935307    0.000000   -0.540000
      4          1           0       -0.935307    0.000000   -0.540000
 ---------------------------------------------------------------------
 Standard basis: STO-3G (5D, 7F)
 FixB: optimizing general contractions.
 Ernie: Thresh=  0.10000D-02 Tol=  0.10000D-05 Strict=F.
 IA=     1 ShT= 0 ShC= 0 NL=   1 NS=   0.
         I=   1 JX=   3 NP=   3
 IA=     1 L=0 SC=0 ISt=    0 NBk=    0 NP=    0 IndPr=    0.
 IA=     1 ShT= 1 ShC= 0 NL=   1 NS=   0.
         I=   1 JX=   3 NP=   3
 IA=     1 L=1 SC=0 ISt=    0 NBk=    0 NP=    0 IndPr=    0.
 IA=     2 ShT= 0 ShC= 0 NL=   1 NS=   0.
         I=   1 JX=   3 NP=   3
 IA=     2 L=0 SC=0 ISt=    0 NBk=    0 NP=    0 IndPr=    0.
 IA=     2 ShT= 1 ShC= 0 NL=   1 NS=   0.
         I=   1 JX=   3 NP=   3
 IA=     2 L=1 SC=0 ISt=    0 NBk=    0 NP=    0 IndPr=    0.
 IA=     3 ShT= 0 ShC= 0 NL=   1 NS=   0.
         I=   1 JX=   3 NP=   3
 IA=     3 L=0 SC=0 ISt=    0 NBk=    0 NP=    0 IndPr=    0.
 IA=     4 ShT= 0 ShC= 0 NL=   1 NS=   0.
         I=   1 JX=   3 NP=   3
 IA=     4 L=0 SC=0 ISt=    0 NBk=    0 NP=    0 IndPr=    0.
    12 AO functions
 Electric field displacement of shell     1 is  0.00D+00
 Electric field displacement of shell     2 is  0.00D+00
 Electric field displacement of shell     3 is  0.00D+00
 Electric field displacement of shell     4 is  0.00D+00
 Electric field displacement of shell     5 is  0.00D+00
 Electric field displacement of shell     6 is  0.00D+00
 AO basis set in the form of general basis input (Overlap normalization):
      1 0
 S   3 1.00       0.000000000000
      0.7161683735D+02  0.1543289673D+00
      0.1304509632D+02  0.5353281423D+00
      0.3530512160D+01  0.4446345422D+00
 SP   3 1.00       0.000000000000
      0.2941249355D+01 -0.9996722919D-01  0.1559162750D+00
      0.6834830964D+00  0.3995128261D+00  0.6076837186D+00
      0.2222899159D+00  0.7001154689D+00  0.3919573931D+00
 ****
      2 0
 S   3 1.00       0.000000000000
      0.1307093214D+03  0.1543289673D+00
      0.2380886605D+02  0.5353281423D+00
      0.6443608313D+01  0.4446345422D+00
 SP   3 1.00       0.000000000000
      0.5033151319D+01 -0.9996722919D-01  0.1559162750D+00
      0.1169596125D+01  0.3995128261D+00  0.6076837186D+00
      0.3803889600D+00  0.7001154689D+00  0.3919573931D+00
 ****
      3 0
 S   3 1.00       0.000000000000
      0.3425250914D+01  0.1543289673D+00
      0.6239137298D+00  0.5353281423D+00
      0.1688554040D+00  0.4446345422D+00
 ****
      4 0
 S   3 1.00       0.000000000000
      0.3425250914D+01  0.1543289673D+00
      0.6239137298D+00  0.5353281423D+00
      0.1688554040D+00  0.4446345422D+00
 ****
  
 LdAtmC:  AtmChg=     6.000000     8.000000     1.000000     1.000000
 AtDip 
                 1             2             3 
      1   0.000000D+00  0.000000D+00  0.000000D+00
      2   0.000000D+00  0.000000D+00  0.000000D+00
      3   0.000000D+00  0.000000D+00  0.000000D+00
      4   0.000000D+00  0.000000D+00  0.000000D+00
 AtQua 
                 1             2             3             4             5 
      1   0.000000D+00  0.000000D+00  0.000000D+00  0.000000D+00  0.000000D+00
      2   0.000000D+00  0.000000D+00  0.000000D+00  0.000000D+00  0.000000D+00
      3   0.000000D+00  0.000000D+00  0.000000D+00  0.000000D+00  0.000000D+00
      4   0.000000D+00  0.000000D+00  0.000000D+00  0.000000D+00  0.000000D+00
                 6 
      1   0.000000D+00
      2   0.000000D+00
      3   0.000000D+00
      4   0.000000D+00
 AtPol 
                 1 
      1   0.000000D+00
      2   0.000000D+00
      3   0.000000D+00
      4   0.000000D+00
 GetPMM: IRwPM=    824 LRwPM=      0 LPMAll=      2
 Standard NEO basis: EvenTemp (5D, 7F)
 Put even-tempered basis on element   1, NSh=  1 LMax= 1 IniExp= 4.00000000D+00 Scale= 7.07106781D-01
     8 NEO functions
 Electric field displacement of shell     1 is  0.00D+00
 Electric field displacement of shell     2 is  0.00D+00
 NEO basis set in the form of general basis input (Overlap normalization):
      3 0
 SP   1 1.00       0.000000000000
      0.4000000000D+01  0.1000000000D+01  0.1000000000D+01
 ****
      4 0
 SP   1 1.00       0.000000000000
      0.4000000000D+01  0.1000000000D+01  0.1000000000D+01
 ****
  
 Using NEO mass 1836.152656 electrons.
 AtZEff=     -3.6000000     -5.6000000     -1.0000000     -1.0000000
    12 basis functions,    36 primitive gaussians,     8 cartesian basis functions
     8 alpha electrons        8 beta electrons
       nuclear repulsion energy        20.8200869870 Hartrees.
 IS=     1 IAt=     1 ISR=     1 T=0 IP=      1 IndIP=      1 IndIPD=      0 C=  2.707814D+00  0.000000D+00                             NZ=T
 IS=     1 IAt=     1 ISR=     1 T=0 IP=      2 IndIP=      2 IndIPD=      1 C=  2.618880D+00  0.000000D+00                             NZ=T
 IS=     1 IAt=     1 ISR=     1 T=0 IP=      3 IndIP=      3 IndIPD=      2 C=  8.161906D-01  0.000000D+00                             NZ=T
 IS=     2 IAt=     1 ISR=     2 T=1 IP=      1 IndIP=      4 IndIPD=      0 C= -1.600172D-01  8.560445D-01                             NZ=T
 IS=     2 IAt=     1 ISR=     2 T=1 IP=      2 IndIP=      5 IndIPD=      1 C=  2.140359D-01  5.383038D-01                             NZ=T
 IS=     2 IAt=     1 ISR=     2 T=1 IP=      3 IndIP=      6 IndIPD=      2 C=  1.615361D-01  8.527636D-02                             NZ=T
 IS=     3 IAt=     2 ISR=     1 T=0 IP=      1 IndIP=      7 IndIPD=      0 C=  4.251943D+00  0.000000D+00                             NZ=T
 IS=     3 IAt=     2 ISR=     1 T=0 IP=      2 IndIP=      8 IndIPD=      1 C=  4.112294D+00  0.000000D+00                             NZ=T
 IS=     3 IAt=     2 ISR=     1 T=0 IP=      3 IndIP=      9 IndIPD=      2 C=  1.281623D+00  0.000000D+00                             NZ=T
 IS=     4 IAt=     2 ISR=     2 T=1 IP=      1 IndIP=     10 IndIPD=      0 C= -2.394130D-01  1.675450D+00                             NZ=T
 IS=     4 IAt=     2 ISR=     2 T=1 IP=      2 IndIP=     11 IndIPD=      1 C=  3.202342D-01  1.053568D+00                             NZ=T
 IS=     4 IAt=     2 ISR=     2 T=1 IP=      3 IndIP=     12 IndIPD=      2 C=  2.416856D-01  1.669029D-01                             NZ=T
 IS=     5 IAt=     3 ISR=     1 T=0 IP=      1 IndIP=     13 IndIPD=      0 C=  2.769344D-01  0.000000D+00                             NZ=T
 IS=     5 IAt=     3 ISR=     1 T=0 IP=      2 IndIP=     14 IndIPD=      1 C=  2.678389D-01  0.000000D+00                             NZ=T
 IS=     5 IAt=     3 ISR=     1 T=0 IP=      3 IndIP=     15 IndIPD=      2 C=  8.347367D-02  0.000000D+00                             NZ=T
 IS=     6 IAt=     4 ISR=     1 T=0 IP=      1 IndIP=     16 IndIPD=      0 C=  2.769344D-01  0.000000D+00                             NZ=T
 IS=     6 IAt=     4 ISR=     1 T=0 IP=      2 IndIP=     17 IndIPD=      1 C=  2.678389D-01  0.000000D+00                             NZ=T
 IS=     6 IAt=     4 ISR=     1 T=0 IP=      3 IndIP=     18 IndIPD=      2 C=  8.347367D-02  0.000000D+00                             NZ=T
 IExCor=         0 DFT=F Ex=HF Corr=None N6=None ScaHFX=  1.000000
 ScaDFX=  1.000000  1.000000  1.000000  1.000000  1.000000  0.000000
 ScaDFX=  0.000000  0.000000  0.000000  0.000000  0.000000  0.000000
 IRadAn=      5 IRanWt=     -1 IRanGd=            0 ICorTp=0 IEmpDi=  4
 NAtoms=    4 NActive=    4 NUniq=    4 SFac= 1.00D+00 NAtFMM=   60 NAOKFM=F Big=F
 Integral buffers will be    131072 words long.
 Raffenetti 1 integral format.
 Two-electron integral symmetry is turned off.
 AtDip 
                 1             2             3 
      1   0.000000D+00  0.000000D+00  0.000000D+00
      2   0.000000D+00  0.000000D+00  0.000000D+00
      3   0.000000D+00  0.000000D+00  0.000000D+00
      4   0.000000D+00  0.000000D+00  0.000000D+00
 AtQua 
                 1             2             3             4             5 
      1   0.000000D+00  0.000000D+00  0.000000D+00  0.000000D+00  0.000000D+00
      2   0.000000D+00  0.000000D+00  0.000000D+00  0.000000D+00  0.000000D+00
      3   0.000000D+00  0.000000D+00  0.000000D+00  0.000000D+00  0.000000D+00
      4   0.000000D+00  0.000000D+00  0.000000D+00  0.000000D+00  0.000000D+00
                 6 
      1   0.000000D+00
      2   0.000000D+00
      3   0.000000D+00
      4   0.000000D+00
 AtPol 
                 1 
      1   0.000000D+00
      2   0.000000D+00
      3   0.000000D+00
      4   0.000000D+00
 Pair potential:
 Leave Link  301 at Tue Apr 19 10:40:43 2022, MaxMem= 13421772800 cpu:               0.3 elap:               0.2
 (Enter /home/software/gaussian/gdv/j19/gdv/l302.exe)
 GetPMM: IRwPM=    824 LRwPM=      0 LPMAll=      2
 AtDip 
                 1             2             3 
      1   0.000000D+00  0.000000D+00  0.000000D+00
      2   0.000000D+00  0.000000D+00  0.000000D+00
      3   0.000000D+00  0.000000D+00  0.000000D+00
      4   0.000000D+00  0.000000D+00  0.000000D+00
 AtQua 
                 1             2             3             4             5 
      1   0.000000D+00  0.000000D+00  0.000000D+00  0.000000D+00  0.000000D+00
      2   0.000000D+00  0.000000D+00  0.000000D+00  0.000000D+00  0.000000D+00
      3   0.000000D+00  0.000000D+00  0.000000D+00  0.000000D+00  0.000000D+00
      4   0.000000D+00  0.000000D+00  0.000000D+00  0.000000D+00  0.000000D+00
                 6 
      1   0.000000D+00
      2   0.000000D+00
      3   0.000000D+00
      4   0.000000D+00
 AtPol 
                 1 
      1   0.000000D+00
      2   0.000000D+00
      3   0.000000D+00
      4   0.000000D+00
 NPDir=0 NMtPBC=     1 NCelOv=     1 NCel=       1 NClECP=     1 NCelD=      1
         NCelK=      1 NCelE2=     1 NClLst=     1 CellRange=     0.0.
 One-electron integrals computed using PRISM.
 Entering OneElI...
 OneElI was handed 13421772362 working-precision words.
 Calculate overlap and kinetic energy integrals
    NBasis =   8  MinDer = 0  MaxDer = 0
 Requested accuracy = 0.1000D-12
 ShPair: Thresh= 1.00D-13 NBox=     0 BxSize= 0.00D+00 RnKept= 3.53D+00
         NSMCal=                    3 NSMKep=                   3
 PrSmSu:  IncTry=   512 NBBP=              3 NTPThr=   100 NPartT=    1 Incr=           1 LDynOK=F GPUOK=F.
 PrsmSu:  NPrtUS=   1 ThrOK=F IAlg=2 LenDen=           0 ISkipM=0 DoSpLW=F IThBeg=    0 IThEnd=    0.
 Prism:   IPart=     0 DynPar=F LinDyn=F Incr=           1.
 PRISM was handed 13421771486 working-precision words and     3 shell-pairs
 IPart=  0 NShTot=           3 NBatch=           1 AvBLen=         3.0
 PrsmSu-ThDecC:  IPartSL=    0    0 NPrtUSL=    1    1 IThBeg=    0 IThEnd=    0 CPU=   -1 GPU=   -1 NThAct=    0.
 PrSmSu:  NxtVal=              2.
 *** NEO Overlap *** 
                1             2             3             4             5 
      1  0.100000D+01
      2  0.000000D+00  0.100000D+01
      3  0.000000D+00  0.000000D+00  0.100000D+01
      4  0.000000D+00  0.000000D+00  0.000000D+00  0.100000D+01
      5  0.000000D+00  0.000000D+00  0.000000D+00  0.000000D+00  0.100000D+01
      6  0.000000D+00  0.000000D+00  0.000000D+00  0.000000D+00  0.000000D+00
      7  0.000000D+00  0.000000D+00  0.000000D+00  0.000000D+00  0.000000D+00
      8  0.000000D+00  0.000000D+00  0.000000D+00  0.000000D+00  0.000000D+00
                6             7             8 
      6  0.100000D+01
      7  0.000000D+00  0.100000D+01
      8  0.000000D+00  0.000000D+00  0.100000D+01
 *** NEO Kinetic Energy *** 
                1             2             3             4             5 
      1  0.326770D-02
      2  0.000000D+00  0.544617D-02
      3  0.000000D+00  0.000000D+00  0.544617D-02
      4  0.000000D+00  0.000000D+00  0.000000D+00  0.544617D-02
      5  0.000000D+00  0.000000D+00  0.000000D+00  0.000000D+00  0.326770D-02
      6  0.000000D+00  0.000000D+00  0.000000D+00  0.000000D+00  0.000000D+00
      7  0.000000D+00  0.000000D+00  0.000000D+00  0.000000D+00  0.000000D+00
      8  0.000000D+00  0.000000D+00  0.000000D+00  0.000000D+00  0.000000D+00
                6             7             8 
      6  0.544617D-02
      7  0.000000D+00  0.544617D-02
      8  0.000000D+00  0.000000D+00  0.544617D-02
 Entering OneElI...
 OneElI was handed 13421772362 working-precision words.
 Calculate potential energy integrals
    NBasis =   8  MinDer = 0  MaxDer = 0
 Requested accuracy = 0.1000D-12
 PrtBox:  NBox=     1 Levels=  1 BoxLen=    6.33 SMaxX=        3.53
          Shift=            1.767474            0.000000            1.020452
 Box      1 Number                   0 centers from      1 to      2:
 ShPair: Thresh= 1.00D-13 NBox=     1 BxSize= 6.33D+00 RnKept= 3.53D+00
         NSMCal=                    3 NSMKep=                   3
 PrSmSu:  IncTry=   512 NBBP=             12 NTPThr=   100 NPartT=    1 Incr=           1 LDynOK=F GPUOK=F.
 PrsmSu:  NPrtUS=   1 ThrOK=F IAlg=2 LenDen=           0 ISkipM=0 DoSpLW=F IThBeg=    0 IThEnd=    0.
 Prism:   IPart=     0 DynPar=F LinDyn=F Incr=           1.
 PRISM was handed 13421771351 working-precision words and     3 shell-pairs
 IPart=  0 NShTot=          12 NBatch=           3 AvBLen=         4.0
 PrsmSu-ThDecC:  IPartSL=    0    0 NPrtUSL=    1    1 IThBeg=    0 IThEnd=    0 CPU=   -1 GPU=   -1 NThAct=   -1.
 PrSmSu:  NxtVal=              2.
 ***** NEO Potential Energy ***** 
                1             2             3             4             5 
      1  0.506392D+01
      2 -0.378034D+00  0.511589D+01
      3  0.000000D+00  0.000000D+00  0.501045D+01
      4  0.304559D+00 -0.689381D-01  0.000000D+00  0.506543D+01
      5  0.000000D+00  0.000000D+00  0.000000D+00  0.000000D+00  0.506392D+01
      6  0.000000D+00  0.000000D+00  0.000000D+00  0.000000D+00  0.378034D+00
      7  0.000000D+00  0.000000D+00  0.000000D+00  0.000000D+00  0.000000D+00
      8  0.000000D+00  0.000000D+00  0.000000D+00  0.000000D+00  0.304559D+00
                6             7             8 
      6  0.511589D+01
      7  0.000000D+00  0.501045D+01
      8  0.689381D-01  0.000000D+00  0.506543D+01
 Entering OneElI...
 OneElI was handed 13421772362 working-precision words.
 Calculate overlap and kinetic energy integrals
    NBasis =  12  MinDer = 0  MaxDer = 0
 Requested accuracy = 0.1000D-12
 ShPair: Thresh= 1.00D-13 NBox=     0 BxSize= 0.00D+00 RnKept= 3.77D+00
         NSMCal=                   21 NSMKep=                  21
 PrmmSu-InSpLW:  IPartL=    0 NPrtUS=   30 NPrtUL=    1 DoSpLW=F IThBeg=    0 IThEnd=   29 NThAct=   30.
 PrSmSu:  IncTry=   512 NBBP=             21 NTPThr=   100 NPartT=   30 Incr=           1 LDynOK=F GPUOK=F.
 PrsmSu:  NPrtUS=  30 ThrOK=T IAlg=1 LenDen=           0 ISkipM=0 DoSpLW=F IThBeg=    0 IThEnd=   29.
 Prism:   IPart=     0 DynPar=F LinDyn=F Incr=           1.
 PRISM was handed   447389986 working-precision words and    21 shell-pairs
 PRISM was handed   447389986 working-precision words and    21 shell-pairs
 PRISM was handed   447389986 working-precision words and    21 shell-pairs
 PRISM was handed   447389986 working-precision words and    21 shell-pairs
 PRISM was handed   447389986 working-precision words and    21 shell-pairs
 PRISM was handed   447389986 working-precision words and    21 shell-pairs
 PRISM was handed   447389986 working-precision words and    21 shell-pairs
 PRISM was handed   447389986 working-precision words and    21 shell-pairs
 PRISM was handed   447389986 working-precision words and    21 shell-pairs
 PRISM was handed   447389986 working-precision words and    21 shell-pairs
 PRISM was handed   447389986 working-precision words and    21 shell-pairs
 PRISM was handed   447389986 working-precision words and    21 shell-pairs
 PRISM was handed   447389986 working-precision words and    21 shell-pairs
 IPart=  0 NShTot=           4 NBatch=           4 AvBLen=         1.0
 PRISM was handed   447389986 working-precision words and    21 shell-pairs
 PRISM was handed   447389986 working-precision words and    21 shell-pairs
 PRISM was handed   447389986 working-precision words and    21 shell-pairs
 PRISM was handed   447389986 working-precision words and    21 shell-pairs
 PRISM was handed   447389986 working-precision words and    21 shell-pairs
 PRISM was handed   447389986 working-precision words and    21 shell-pairs
 PRISM was handed   447389986 working-precision words and    21 shell-pairs
 PRISM was handed   447389986 working-precision words and    21 shell-pairs
 PRISM was handed   447389986 working-precision words and    21 shell-pairs
 PRISM was handed   447389986 working-precision words and    21 shell-pairs
 PRISM was handed   447389986 working-precision words and    21 shell-pairs
 IPart= 26 NShTot=           0 NBatch=           0 AvBLen=         0.0
 IPart=  8 NShTot=           1 NBatch=           1 AvBLen=         1.0
 IPart= 22 NShTot=           0 NBatch=           0 AvBLen=         0.0
 PRISM was handed   447389986 working-precision words and    21 shell-pairs
 PrsmSu-ThDecC:  IPartSL=    0    0 NPrtUSL=   30    1 IThBeg=    0 IThEnd=   29 CPU=   -1 GPU=   -1 NThAct=   30.
 PRISM was handed   447389986 working-precision words and    21 shell-pairs
 PrsmSu-ThDecC:  IPartSL=    8    0 NPrtUSL=   30    1 IThBeg=    0 IThEnd=   29 CPU=   -1 GPU=   -1 NThAct=   29.
 PrsmSu-ThDecC:  IPartSL=   26    0 NPrtUSL=   30    1 IThBeg=    0 IThEnd=   29 CPU=   -1 GPU=   -1 NThAct=   28.
 IPart= 21 NShTot=           0 NBatch=           0 AvBLen=         0.0
 IPart= 17 NShTot=           0 NBatch=           0 AvBLen=         0.0
 PrsmSu-ThDecC:  IPartSL=   22    0 NPrtUSL=   30    1 IThBeg=    0 IThEnd=   29 CPU=   -1 GPU=   -1 NThAct=   27.
 PrsmSu-ThDecC:  IPartSL=   17    0 NPrtUSL=   30    1 IThBeg=    0 IThEnd=   29 CPU=   -1 GPU=   -1 NThAct=   26.
 PrsmSu-ThDecC:  IPartSL=   21    0 NPrtUSL=   30    1 IThBeg=    0 IThEnd=   29 CPU=   -1 GPU=   -1 NThAct=   25.
 PRISM was handed   447389986 working-precision words and    21 shell-pairs
 PRISM was handed   447389986 working-precision words and    21 shell-pairs
 PRISM was handed   447389986 working-precision words and    21 shell-pairs
 IPart= 23 NShTot=           0 NBatch=           0 AvBLen=         0.0
 IPart= 15 NShTot=           0 NBatch=           0 AvBLen=         0.0
 PrsmSu-ThDecC:  IPartSL=   23    0 NPrtUSL=   30    1 IThBeg=    0 IThEnd=   29 CPU=   -1 GPU=   -1 NThAct=   24.
 IPart=  5 NShTot=           2 NBatch=           2 AvBLen=         1.0
 PrsmSu-ThDecC:  IPartSL=   15    0 NPrtUSL=   30    1 IThBeg=    0 IThEnd=   29 CPU=   -1 GPU=   -1 NThAct=   23.
 PRISM was handed   447389986 working-precision words and    21 shell-pairs
 IPart=  6 NShTot=           2 NBatch=           2 AvBLen=         1.0
 IPart= 12 NShTot=           0 NBatch=           0 AvBLen=         0.0
 IPart= 20 NShTot=           0 NBatch=           0 AvBLen=         0.0
 IPart= 10 NShTot=           0 NBatch=           0 AvBLen=         0.0
 IPart=  1 NShTot=           3 NBatch=           3 AvBLen=         1.0
 PrsmSu-ThDecC:  IPartSL=    5    0 NPrtUSL=   30    1 IThBeg=    0 IThEnd=   29 CPU=   -1 GPU=   -1 NThAct=   22.
 PrsmSu-ThDecC:  IPartSL=    1    0 NPrtUSL=   30    1 IThBeg=    0 IThEnd=   29 CPU=   -1 GPU=   -1 NThAct=   21.
 PrsmSu-ThDecC:  IPartSL=   20    0 NPrtUSL=   30    1 IThBeg=    0 IThEnd=   29 CPU=   -1 GPU=   -1 NThAct=   20.
 IPart= 24 NShTot=           0 NBatch=           0 AvBLen=         0.0
 PrsmSu-ThDecC:  IPartSL=   10    0 NPrtUSL=   30    1 IThBeg=    0 IThEnd=   29 CPU=   -1 GPU=   -1 NThAct=   19.
 PrsmSu-ThDecC:  IPartSL=   12    0 NPrtUSL=   30    1 IThBeg=    0 IThEnd=   29 CPU=   -1 GPU=   -1 NThAct=   18.
 PrsmSu-ThDecC:  IPartSL=    6    0 NPrtUSL=   30    1 IThBeg=    0 IThEnd=   29 CPU=   -1 GPU=   -1 NThAct=   17.
 PrsmSu-ThDecC:  IPartSL=   24    0 NPrtUSL=   30    1 IThBeg=    0 IThEnd=   29 CPU=   -1 GPU=   -1 NThAct=   16.
 IPart=  2 NShTot=           3 NBatch=           3 AvBLen=         1.0
 IPart=  9 NShTot=           0 NBatch=           0 AvBLen=         0.0
 IPart= 13 NShTot=           0 NBatch=           0 AvBLen=         0.0
 IPart=  4 NShTot=           2 NBatch=           2 AvBLen=         1.0
 IPart= 25 NShTot=           0 NBatch=           0 AvBLen=         0.0
 PrsmSu-ThDecC:  IPartSL=    2    0 NPrtUSL=   30    1 IThBeg=    0 IThEnd=   29 CPU=   -1 GPU=   -1 NThAct=   15.
 IPart= 27 NShTot=           0 NBatch=           0 AvBLen=         0.0
 PrsmSu-ThDecC:  IPartSL=    4    0 NPrtUSL=   30    1 IThBeg=    0 IThEnd=   29 CPU=   -1 GPU=   -1 NThAct=   14.
 PrsmSu-ThDecC:  IPartSL=   13    0 NPrtUSL=   30    1 IThBeg=    0 IThEnd=   29 CPU=   -1 GPU=   -1 NThAct=   13.
 IPart= 14 NShTot=           0 NBatch=           0 AvBLen=         0.0
 IPart= 29 NShTot=           0 NBatch=           0 AvBLen=         0.0
 IPart=  3 NShTot=           2 NBatch=           2 AvBLen=         1.0
 IPart= 18 NShTot=           0 NBatch=           0 AvBLen=         0.0
 PrsmSu-ThDecC:  IPartSL=   27    0 NPrtUSL=   30    1 IThBeg=    0 IThEnd=   29 CPU=   -1 GPU=   -1 NThAct=   12.
 PrsmSu-ThDecC:  IPartSL=   18    0 NPrtUSL=   30    1 IThBeg=    0 IThEnd=   29 CPU=   -1 GPU=   -1 NThAct=   11.
 PrsmSu-ThDecC:  IPartSL=    3    0 NPrtUSL=   30    1 IThBeg=    0 IThEnd=   29 CPU=   -1 GPU=   -1 NThAct=   10.
 IPart= 19 NShTot=           0 NBatch=           0 AvBLen=         0.0
 PrsmSu-ThDecC:  IPartSL=   29    0 NPrtUSL=   30    1 IThBeg=    0 IThEnd=   29 CPU=   -1 GPU=   -1 NThAct=    9.
 IPart=  7 NShTot=           2 NBatch=           2 AvBLen=         1.0
 PrsmSu-ThDecC:  IPartSL=    9    0 NPrtUSL=   30    1 IThBeg=    0 IThEnd=   29 CPU=   -1 GPU=   -1 NThAct=    8.
 PrsmSu-ThDecC:  IPartSL=    7    0 NPrtUSL=   30    1 IThBeg=    0 IThEnd=   29 CPU=   -1 GPU=   -1 NThAct=    7.
 IPart= 28 NShTot=           0 NBatch=           0 AvBLen=         0.0
 PrsmSu-ThDecC:  IPartSL=   14    0 NPrtUSL=   30    1 IThBeg=    0 IThEnd=   29 CPU=   -1 GPU=   -1 NThAct=    6.
 PrsmSu-ThDecC:  IPartSL=   28    0 NPrtUSL=   30    1 IThBeg=    0 IThEnd=   29 CPU=   -1 GPU=   -1 NThAct=    5.
 IPart= 11 NShTot=           0 NBatch=           0 AvBLen=         0.0
 IPart= 16 NShTot=           0 NBatch=           0 AvBLen=         0.0
 PrsmSu-ThDecC:  IPartSL=   25    0 NPrtUSL=   30    1 IThBeg=    0 IThEnd=   29 CPU=   -1 GPU=   -1 NThAct=    4.
 PrsmSu-ThDecC:  IPartSL=   16    0 NPrtUSL=   30    1 IThBeg=    0 IThEnd=   29 CPU=   -1 GPU=   -1 NThAct=    3.
 PrsmSu-ThDecC:  IPartSL=   11    0 NPrtUSL=   30    1 IThBeg=    0 IThEnd=   29 CPU=   -1 GPU=   -1 NThAct=    2.
 PrsmSu-ThDecC:  IPartSL=   19    0 NPrtUSL=   30    1 IThBeg=    0 IThEnd=   29 CPU=   -1 GPU=   -1 NThAct=    1.
 PrSmSu:  NxtVal=             31.
 *** Overlap *** 
                1             2             3             4             5 
      1  0.100000D+01
      2  0.248362D+00  0.100000D+01
      3  0.000000D+00  0.000000D+00  0.100000D+01
      4  0.000000D+00  0.000000D+00  0.000000D+00  0.100000D+01
      5  0.000000D+00  0.000000D+00  0.000000D+00  0.000000D+00  0.100000D+01
      6  0.101528D-05  0.361821D-01  0.000000D+00  0.000000D+00  0.608130D-01
      7  0.353823D-01  0.359354D+00  0.000000D+00  0.000000D+00  0.438893D+00
      8  0.000000D+00  0.000000D+00  0.207283D+00  0.000000D+00  0.000000D+00
      9  0.000000D+00  0.000000D+00  0.000000D+00  0.207283D+00  0.000000D+00
     10 -0.594891D-01 -0.319191D+00  0.000000D+00  0.000000D+00 -0.313398D+00
     11  0.637468D-01  0.496523D+00  0.407625D+00  0.000000D+00 -0.235343D+00
     12  0.637468D-01  0.496523D+00 -0.407625D+00  0.000000D+00 -0.235343D+00
                6             7             8             9            10 
      6  0.100000D+01
      7  0.236704D+00  0.100000D+01
      8  0.000000D+00  0.000000D+00  0.100000D+01
      9  0.000000D+00  0.000000D+00  0.000000D+00  0.100000D+01
     10  0.000000D+00  0.000000D+00  0.000000D+00  0.000000D+00  0.100000D+01
     11  0.506578D-02  0.769952D-01  0.399801D-01  0.000000D+00 -0.752319D-01
     12  0.506578D-02  0.769952D-01 -0.399801D-01  0.000000D+00 -0.752319D-01
               11            12 
     11  0.100000D+01
     12  0.146877D+00  0.100000D+01
 *** Kinetic Energy *** 
                1             2             3             4             5 
      1  0.158911D+02
      2 -0.858900D-01  0.472250D+00
      3  0.000000D+00  0.000000D+00  0.147773D+01
      4  0.000000D+00  0.000000D+00  0.000000D+00  0.147773D+01
      5  0.000000D+00  0.000000D+00  0.000000D+00  0.000000D+00  0.147773D+01
      6 -0.496590D-04 -0.524023D-02  0.000000D+00  0.000000D+00 -0.336458D-02
      7 -0.191022D-01  0.595145D-01  0.000000D+00  0.000000D+00  0.217198D+00
      8  0.000000D+00  0.000000D+00  0.948893D-01  0.000000D+00  0.000000D+00
      9  0.000000D+00  0.000000D+00  0.000000D+00  0.948893D-01  0.000000D+00
     10  0.223431D-01 -0.162761D+00  0.000000D+00  0.000000D+00 -0.392290D+00
     11 -0.101529D-01  0.110155D+00  0.231545D+00  0.000000D+00 -0.133683D+00
     12 -0.101529D-01  0.110155D+00 -0.231545D+00  0.000000D+00 -0.133683D+00
                6             7             8             9            10 
      6  0.290032D+02
      7 -0.168011D+00  0.808128D+00
      8  0.000000D+00  0.000000D+00  0.252873D+01
      9  0.000000D+00  0.000000D+00  0.000000D+00  0.252873D+01
     10  0.000000D+00  0.000000D+00  0.000000D+00  0.000000D+00  0.252873D+01
     11 -0.173538D-02 -0.177378D-01 -0.301060D-02  0.000000D+00  0.566516D-02
     12 -0.173538D-02 -0.177378D-01  0.301060D-02  0.000000D+00  0.566516D-02
               11            12 
     11  0.760032D+00
     12 -0.796070D-02  0.760032D+00
 Entering OneElI...
 OneElI was handed 13421772362 working-precision words.
 Calculate potential energy integrals
    NBasis =  12  MinDer = 0  MaxDer = 0
 Requested accuracy = 0.1000D-12
 ShPair: Thresh= 1.00D-13 NBox=     0 BxSize= 0.00D+00 RnKept= 3.77D+00
         NSMCal=                   21 NSMKep=                  21
 PrmmSu-InSpLW:  IPartL=    0 NPrtUS=   30 NPrtUL=    1 DoSpLW=F IThBeg=    0 IThEnd=   29 NThAct=   30.
 PrSmSu:  IncTry=   512 NBBP=             84 NTPThr=   100 NPartT=   30 Incr=           1 LDynOK=F GPUOK=F.
 PrsmSu:  NPrtUS=  30 ThrOK=T IAlg=1 LenDen=           0 ISkipM=0 DoSpLW=F IThBeg=    0 IThEnd=   29.
 Prism:   IPart=     0 DynPar=F LinDyn=F Incr=           1.
 PRISM was handed   447390091 working-precision words and    21 shell-pairs
 PRISM was handed   447390091 working-precision words and    21 shell-pairs
 PRISM was handed   447390091 working-precision words and    21 shell-pairs
 PRISM was handed   447390091 working-precision words and    21 shell-pairs
 PRISM was handed   447390091 working-precision words and    21 shell-pairs
 PRISM was handed   447390091 working-precision words and    21 shell-pairs
 PRISM was handed   447390091 working-precision words and    21 shell-pairs
 PRISM was handed   447390091 working-precision words and    21 shell-pairs
 PRISM was handed   447390091 working-precision words and    21 shell-pairs
 PRISM was handed   447390091 working-precision words and    21 shell-pairs
 PRISM was handed   447390091 working-precision words and    21 shell-pairs
 PRISM was handed   447390091 working-precision words and    21 shell-pairs
 PRISM was handed   447390091 working-precision words and    21 shell-pairs
 PRISM was handed   447390091 working-precision words and    21 shell-pairs
 PRISM was handed   447390091 working-precision words and    21 shell-pairs
 PRISM was handed   447390091 working-precision words and    21 shell-pairs
 PRISM was handed   447390091 working-precision words and    21 shell-pairs
 PRISM was handed   447390091 working-precision words and    21 shell-pairs
 PRISM was handed   447390091 working-precision words and    21 shell-pairs
 PRISM was handed   447390091 working-precision words and    21 shell-pairs
 PRISM was handed   447390091 working-precision words and    21 shell-pairs
 PRISM was handed   447390091 working-precision words and    21 shell-pairs
 PRISM was handed   447390091 working-precision words and    21 shell-pairs
 PRISM was handed   447390091 working-precision words and    21 shell-pairs
 PRISM was handed   447390091 working-precision words and    21 shell-pairs
 PRISM was handed   447390091 working-precision words and    21 shell-pairs
 PRISM was handed   447390091 working-precision words and    21 shell-pairs
 PRISM was handed   447390091 working-precision words and    21 shell-pairs
 PRISM was handed   447390091 working-precision words and    21 shell-pairs
 PRISM was handed   447390091 working-precision words and    21 shell-pairs
 IPart= 17 NShTot=           0 NBatch=           0 AvBLen=         0.0
 PrsmSu-ThDecC:  IPartSL=   17    0 NPrtUSL=   30    1 IThBeg=    0 IThEnd=   29 CPU=   -1 GPU=   -1 NThAct=   30.
 IPart=  4 NShTot=           8 NBatch=           2 AvBLen=         4.0
 PrsmSu-ThDecC:  IPartSL=    4    0 NPrtUSL=   30    1 IThBeg=    0 IThEnd=   29 CPU=   -1 GPU=   -1 NThAct=   29.
 IPart=  0 NShTot=          20 NBatch=           5 AvBLen=         4.0
 PrsmSu-ThDecC:  IPartSL=    0    0 NPrtUSL=   30    1 IThBeg=    0 IThEnd=   29 CPU=   -1 GPU=   -1 NThAct=   28.
 IPart= 27 NShTot=           0 NBatch=           0 AvBLen=         0.0
 PrsmSu-ThDecC:  IPartSL=   27    0 NPrtUSL=   30    1 IThBeg=    0 IThEnd=   29 CPU=   -1 GPU=   -1 NThAct=   27.
 IPart= 12 NShTot=           0 NBatch=           0 AvBLen=         0.0
 IPart= 10 NShTot=           0 NBatch=           0 AvBLen=         0.0
 PrsmSu-ThDecC:  IPartSL=   12    0 NPrtUSL=   30    1 IThBeg=    0 IThEnd=   29 CPU=   -1 GPU=   -1 NThAct=   26.
 IPart=  5 NShTot=           8 NBatch=           2 AvBLen=         4.0
 PrsmSu-ThDecC:  IPartSL=   10    0 NPrtUSL=   30    1 IThBeg=    0 IThEnd=   29 CPU=   -1 GPU=   -1 NThAct=   25.
 PrsmSu-ThDecC:  IPartSL=    5    0 NPrtUSL=   30    1 IThBeg=    0 IThEnd=   29 CPU=   -1 GPU=   -1 NThAct=   24.
 IPart=  1 NShTot=          16 NBatch=           4 AvBLen=         4.0
 PrsmSu-ThDecC:  IPartSL=    1    0 NPrtUSL=   30    1 IThBeg=    0 IThEnd=   29 CPU=   -1 GPU=   -1 NThAct=   23.
 IPart= 26 NShTot=           0 NBatch=           0 AvBLen=         0.0
 PrsmSu-ThDecC:  IPartSL=   26    0 NPrtUSL=   30    1 IThBeg=    0 IThEnd=   29 CPU=   -1 GPU=   -1 NThAct=   22.
 IPart= 13 NShTot=           0 NBatch=           0 AvBLen=         0.0
 PrsmSu-ThDecC:  IPartSL=   13    0 NPrtUSL=   30    1 IThBeg=    0 IThEnd=   29 CPU=   -1 GPU=   -1 NThAct=   21.
 IPart= 14 NShTot=           0 NBatch=           0 AvBLen=         0.0
 PrsmSu-ThDecC:  IPartSL=   14    0 NPrtUSL=   30    1 IThBeg=    0 IThEnd=   29 CPU=   -1 GPU=   -1 NThAct=   20.
 IPart= 24 NShTot=           0 NBatch=           0 AvBLen=         0.0
 PrsmSu-ThDecC:  IPartSL=   24    0 NPrtUSL=   30    1 IThBeg=    0 IThEnd=   29 CPU=   -1 GPU=   -1 NThAct=   19.
 IPart= 23 NShTot=           0 NBatch=           0 AvBLen=         0.0
 PrsmSu-ThDecC:  IPartSL=   23    0 NPrtUSL=   30    1 IThBeg=    0 IThEnd=   29 CPU=   -1 GPU=   -1 NThAct=   18.
 IPart=  6 NShTot=           8 NBatch=           2 AvBLen=         4.0
 PrsmSu-ThDecC:  IPartSL=    6    0 NPrtUSL=   30    1 IThBeg=    0 IThEnd=   29 CPU=   -1 GPU=   -1 NThAct=   17.
 IPart=  2 NShTot=          12 NBatch=           3 AvBLen=         4.0
 PrsmSu-ThDecC:  IPartSL=    2    0 NPrtUSL=   30    1 IThBeg=    0 IThEnd=   29 CPU=   -1 GPU=   -1 NThAct=   16.
 IPart= 15 NShTot=           0 NBatch=           0 AvBLen=         0.0
 PrsmSu-ThDecC:  IPartSL=   15    0 NPrtUSL=   30    1 IThBeg=    0 IThEnd=   29 CPU=   -1 GPU=   -1 NThAct=   15.
 IPart= 21 NShTot=           0 NBatch=           0 AvBLen=         0.0
 PrsmSu-ThDecC:  IPartSL=   21    0 NPrtUSL=   30    1 IThBeg=    0 IThEnd=   29 CPU=   -1 GPU=   -1 NThAct=   14.
 IPart=  7 NShTot=           4 NBatch=           1 AvBLen=         4.0
 PrsmSu-ThDecC:  IPartSL=    7    0 NPrtUSL=   30    1 IThBeg=    0 IThEnd=   29 CPU=   -1 GPU=   -1 NThAct=   13.
 IPart= 29 NShTot=           0 NBatch=           0 AvBLen=         0.0
 PrsmSu-ThDecC:  IPartSL=   29    0 NPrtUSL=   30    1 IThBeg=    0 IThEnd=   29 CPU=   -1 GPU=   -1 NThAct=   12.
 IPart=  8 NShTot=           0 NBatch=           0 AvBLen=         0.0
 PrsmSu-ThDecC:  IPartSL=    8    0 NPrtUSL=   30    1 IThBeg=    0 IThEnd=   29 CPU=   -1 GPU=   -1 NThAct=   11.
 IPart= 22 NShTot=           0 NBatch=           0 AvBLen=         0.0
 PrsmSu-ThDecC:  IPartSL=   22    0 NPrtUSL=   30    1 IThBeg=    0 IThEnd=   29 CPU=   -1 GPU=   -1 NThAct=   10.
 IPart= 25 NShTot=           0 NBatch=           0 AvBLen=         0.0
 PrsmSu-ThDecC:  IPartSL=   25    0 NPrtUSL=   30    1 IThBeg=    0 IThEnd=   29 CPU=   -1 GPU=   -1 NThAct=    9.
 IPart= 19 NShTot=           0 NBatch=           0 AvBLen=         0.0
 PrsmSu-ThDecC:  IPartSL=   19    0 NPrtUSL=   30    1 IThBeg=    0 IThEnd=   29 CPU=   -1 GPU=   -1 NThAct=    8.
 IPart= 28 NShTot=           0 NBatch=           0 AvBLen=         0.0
 PrsmSu-ThDecC:  IPartSL=   28    0 NPrtUSL=   30    1 IThBeg=    0 IThEnd=   29 CPU=   -1 GPU=   -1 NThAct=    7.
 IPart=  3 NShTot=           8 NBatch=           2 AvBLen=         4.0
 PrsmSu-ThDecC:  IPartSL=    3    0 NPrtUSL=   30    1 IThBeg=    0 IThEnd=   29 CPU=   -1 GPU=   -1 NThAct=    6.
 IPart= 18 NShTot=           0 NBatch=           0 AvBLen=         0.0
 PrsmSu-ThDecC:  IPartSL=   18    0 NPrtUSL=   30    1 IThBeg=    0 IThEnd=   29 CPU=   -1 GPU=   -1 NThAct=    5.
 IPart= 11 NShTot=           0 NBatch=           0 AvBLen=         0.0
 PrsmSu-ThDecC:  IPartSL=   11    0 NPrtUSL=   30    1 IThBeg=    0 IThEnd=   29 CPU=   -1 GPU=   -1 NThAct=    4.
 IPart= 16 NShTot=           0 NBatch=           0 AvBLen=         0.0
 PrsmSu-ThDecC:  IPartSL=   16    0 NPrtUSL=   30    1 IThBeg=    0 IThEnd=   29 CPU=   -1 GPU=   -1 NThAct=    3.
 IPart= 20 NShTot=           0 NBatch=           0 AvBLen=         0.0
 PrsmSu-ThDecC:  IPartSL=   20    0 NPrtUSL=   30    1 IThBeg=    0 IThEnd=   29 CPU=   -1 GPU=   -1 NThAct=    2.
 IPart=  9 NShTot=           0 NBatch=           0 AvBLen=         0.0
 PrsmSu-ThDecC:  IPartSL=    9    0 NPrtUSL=   30    1 IThBeg=    0 IThEnd=   29 CPU=   -1 GPU=   -1 NThAct=    1.
 PrSmSu:  NxtVal=             31.
 ***** Potential Energy ***** 
                1             2             3             4             5 
      1  0.371228D+02
      2  0.505405D+01  0.860620D+01
      3  0.000000D+00  0.000000D+00  0.829271D+01
      4  0.000000D+00  0.000000D+00  0.000000D+00  0.829271D+01
      5  0.108151D+00  0.116496D+01  0.000000D+00  0.000000D+00  0.910213D+01
      6  0.142114D-04  0.122475D+01  0.000000D+00  0.000000D+00  0.206259D+01
      7  0.731946D+00  0.372798D+01  0.000000D+00  0.000000D+00  0.481928D+01
      8  0.000000D+00  0.000000D+00  0.180184D+01  0.000000D+00  0.000000D+00
      9  0.000000D+00  0.000000D+00  0.000000D+00  0.180184D+01  0.000000D+00
     10 -0.123721D+01 -0.333943D+01  0.000000D+00  0.000000D+00 -0.360843D+01
     11  0.131254D+01  0.337227D+01  0.247830D+01  0.000000D+00 -0.113499D+01
     12  0.131254D+01  0.337227D+01 -0.247830D+01  0.000000D+00 -0.113499D+01
                6             7             8             9            10 
      6  0.632210D+02
      7  0.779910D+01  0.116487D+02
      8  0.000000D+00  0.000000D+00  0.114369D+02
      9  0.000000D+00  0.000000D+00  0.000000D+00  0.114369D+02
     10 -0.573362D-01 -0.712379D+00  0.000000D+00  0.000000D+00  0.118500D+02
     11  0.170617D+00  0.714517D+00  0.296997D+00  0.000000D+00 -0.690843D+00
     12  0.170617D+00  0.714517D+00 -0.296997D+00  0.000000D+00 -0.690843D+00
               11            12 
     11  0.499715D+01
     12  0.893140D+00  0.499715D+01
 ****** Core Hamiltonian ****** 
                1             2             3             4             5 
      1 -0.212316D+02
      2 -0.513994D+01 -0.813395D+01
      3  0.000000D+00  0.000000D+00 -0.681498D+01
      4  0.000000D+00  0.000000D+00  0.000000D+00 -0.681498D+01
      5 -0.108151D+00 -0.116496D+01  0.000000D+00  0.000000D+00 -0.762440D+01
      6 -0.638704D-04 -0.122999D+01  0.000000D+00  0.000000D+00 -0.206595D+01
      7 -0.751048D+00 -0.366847D+01  0.000000D+00  0.000000D+00 -0.460208D+01
      8  0.000000D+00  0.000000D+00 -0.170695D+01  0.000000D+00  0.000000D+00
      9  0.000000D+00  0.000000D+00  0.000000D+00 -0.170695D+01  0.000000D+00
     10  0.125955D+01  0.317667D+01  0.000000D+00  0.000000D+00  0.321614D+01
     11 -0.132269D+01 -0.326211D+01 -0.224675D+01  0.000000D+00  0.100130D+01
     12 -0.132269D+01 -0.326211D+01  0.224675D+01  0.000000D+00  0.100130D+01
                6             7             8             9            10 
      6 -0.342178D+02
      7 -0.796711D+01 -0.108406D+02
      8  0.000000D+00  0.000000D+00 -0.890818D+01
      9  0.000000D+00  0.000000D+00  0.000000D+00 -0.890818D+01
     10  0.573362D-01  0.712379D+00  0.000000D+00  0.000000D+00 -0.932122D+01
     11 -0.172352D+00 -0.732255D+00 -0.300008D+00  0.000000D+00  0.696509D+00
     12 -0.172352D+00 -0.732255D+00  0.300008D+00  0.000000D+00  0.696509D+00
               11            12 
     11 -0.423712D+01
     12 -0.901101D+00 -0.423712D+01
 SSO for IR=          1
                 1             2             3             4             5 
      1   0.100000D+01  0.248362D+00  0.000000D+00  0.000000D+00  0.000000D+00
      2   0.248362D+00  0.100000D+01  0.000000D+00  0.000000D+00  0.000000D+00
      3   0.000000D+00  0.000000D+00  0.100000D+01  0.000000D+00  0.000000D+00
      4   0.000000D+00  0.000000D+00  0.000000D+00  0.100000D+01  0.000000D+00
      5   0.000000D+00  0.000000D+00  0.000000D+00  0.000000D+00  0.100000D+01
      6   0.101528D-05  0.361821D-01  0.000000D+00  0.000000D+00  0.608130D-01
      7   0.353823D-01  0.359354D+00  0.000000D+00  0.000000D+00  0.438893D+00
      8   0.000000D+00  0.000000D+00  0.207283D+00  0.000000D+00  0.000000D+00
      9   0.000000D+00  0.000000D+00  0.000000D+00  0.207283D+00  0.000000D+00
     10  -0.594891D-01 -0.319191D+00  0.000000D+00  0.000000D+00 -0.313398D+00
     11   0.637468D-01  0.496523D+00  0.407625D+00  0.000000D+00 -0.235343D+00
     12   0.637468D-01  0.496523D+00 -0.407625D+00  0.000000D+00 -0.235343D+00
                 6             7             8             9            10 
      1   0.101528D-05  0.353823D-01  0.000000D+00  0.000000D+00 -0.594891D-01
      2   0.361821D-01  0.359354D+00  0.000000D+00  0.000000D+00 -0.319191D+00
      3   0.000000D+00  0.000000D+00  0.207283D+00  0.000000D+00  0.000000D+00
      4   0.000000D+00  0.000000D+00  0.000000D+00  0.207283D+00  0.000000D+00
      5   0.608130D-01  0.438893D+00  0.000000D+00  0.000000D+00 -0.313398D+00
      6   0.100000D+01  0.236704D+00  0.000000D+00  0.000000D+00  0.000000D+00
      7   0.236704D+00  0.100000D+01  0.000000D+00  0.000000D+00  0.000000D+00
      8   0.000000D+00  0.000000D+00  0.100000D+01  0.000000D+00  0.000000D+00
      9   0.000000D+00  0.000000D+00  0.000000D+00  0.100000D+01  0.000000D+00
     10   0.000000D+00  0.000000D+00  0.000000D+00  0.000000D+00  0.100000D+01
     11   0.506578D-02  0.769952D-01  0.399801D-01  0.000000D+00 -0.752319D-01
     12   0.506578D-02  0.769952D-01 -0.399801D-01  0.000000D+00 -0.752319D-01
                11            12 
      1   0.637468D-01  0.637468D-01
      2   0.496523D+00  0.496523D+00
      3   0.407625D+00 -0.407625D+00
      4   0.000000D+00  0.000000D+00
      5  -0.235343D+00 -0.235343D+00
      6   0.506578D-02  0.506578D-02
      7   0.769952D-01  0.769952D-01
      8   0.399801D-01 -0.399801D-01
      9   0.000000D+00  0.000000D+00
     10  -0.752319D-01 -0.752319D-01
     11   0.100000D+01  0.146877D+00
     12   0.146877D+00  0.100000D+01
 SVDSVc IOpt=   1 NormSV=T IR=1
 SVDSVc V= 2.05D+00 1.63D+00 1.57D+00 1.21D+00 1.12D+00 9.53D-01 9.48D-01 8.42D-01 7.93D-01 3.31D-01
 SVDSVc V= 3.17D-01 2.34D-01
 V for IR=          1
                 1             2             3             4             5 
      1   0.228604D+00 -0.309436D-01  0.000000D+00  0.000000D+00 -0.194214D+00
      2   0.642591D+00 -0.569568D-01  0.000000D+00  0.000000D+00 -0.457582D-01
      3   0.000000D+00  0.000000D+00  0.726539D+00  0.000000D+00  0.000000D+00
      4   0.000000D+00  0.000000D+00  0.000000D+00  0.707107D+00  0.000000D+00
      5   0.431137D-01  0.697140D+00  0.000000D+00  0.000000D+00 -0.200050D+00
      6   0.102670D+00  0.239293D+00  0.000000D+00  0.000000D+00  0.619188D+00
      7   0.328773D+00  0.474287D+00  0.000000D+00  0.000000D+00  0.381894D+00
      8   0.000000D+00  0.000000D+00  0.322454D+00  0.000000D+00  0.000000D+00
      9   0.000000D+00  0.000000D+00  0.000000D+00  0.707107D+00  0.000000D+00
     10  -0.279787D+00 -0.247957D+00  0.000000D+00  0.000000D+00  0.614992D+00
     11   0.409905D+00 -0.288187D+00  0.429048D+00  0.000000D+00  0.797326D-01
     12   0.409905D+00 -0.288187D+00 -0.429048D+00  0.000000D+00  0.797326D-01
                 6             7             8             9            10 
      1   0.938314D+00  0.000000D+00  0.642476D-01  0.000000D+00  0.000000D+00
      2  -0.363110D-01  0.000000D+00 -0.813537D-01  0.000000D+00  0.000000D+00
      3   0.000000D+00 -0.145084D+00  0.000000D+00  0.000000D+00  0.671634D+00
      4   0.000000D+00  0.000000D+00  0.000000D+00  0.707107D+00  0.000000D+00
      5  -0.284018D-01  0.000000D+00 -0.163886D+00  0.000000D+00  0.000000D+00
      6   0.681249D-01  0.000000D+00  0.727453D+00  0.000000D+00  0.000000D+00
      7   0.611343D-02  0.000000D+00 -0.430781D+00  0.000000D+00  0.000000D+00
      8   0.000000D+00  0.935131D+00  0.000000D+00  0.000000D+00 -0.146811D+00
      9   0.000000D+00  0.000000D+00  0.000000D+00 -0.707107D+00  0.000000D+00
     10   0.252567D+00  0.000000D+00 -0.495441D+00  0.000000D+00  0.000000D+00
     11  -0.156481D+00 -0.228562D+00 -0.329596D-01  0.000000D+00 -0.513495D+00
     12  -0.156481D+00  0.228562D+00 -0.329596D-01  0.000000D+00  0.513495D+00
                11            12 
      1   0.583289D-01 -0.145257D+00
      2  -0.229831D+00  0.721789D+00
      3   0.000000D+00  0.000000D+00
      4   0.000000D+00  0.000000D+00
      5   0.639693D+00  0.187736D+00
      6   0.914768D-01  0.812795D-01
      7  -0.409466D+00 -0.409690D+00
      8   0.000000D+00  0.000000D+00
      9   0.000000D+00  0.000000D+00
     10   0.273949D+00  0.312604D+00
     11   0.376490D+00 -0.274320D+00
     12   0.376490D+00 -0.274320D+00
 Vt*S*V: 
                1             2             3             4             5 
      1  0.100000D+01
      2  0.000000D+00  0.100000D+01
      3  0.000000D+00  0.000000D+00  0.100000D+01
      4  0.000000D+00  0.000000D+00  0.000000D+00  0.100000D+01
      5  0.000000D+00  0.000000D+00  0.000000D+00  0.000000D+00  0.100000D+01
      6  0.000000D+00  0.000000D+00  0.000000D+00  0.000000D+00  0.000000D+00
      7  0.000000D+00  0.000000D+00  0.000000D+00  0.000000D+00  0.000000D+00
      8  0.000000D+00  0.000000D+00  0.000000D+00  0.000000D+00  0.000000D+00
      9  0.000000D+00  0.000000D+00  0.000000D+00  0.000000D+00  0.000000D+00
     10  0.000000D+00  0.000000D+00  0.000000D+00  0.000000D+00  0.000000D+00
     11  0.000000D+00  0.000000D+00  0.000000D+00  0.000000D+00  0.000000D+00
     12  0.000000D+00  0.000000D+00  0.000000D+00  0.000000D+00  0.000000D+00
                6             7             8             9            10 
      6  0.100000D+01
      7  0.000000D+00  0.100000D+01
      8  0.000000D+00  0.000000D+00  0.100000D+01
      9  0.000000D+00  0.000000D+00  0.000000D+00  0.100000D+01
     10  0.000000D+00  0.000000D+00  0.000000D+00  0.000000D+00  0.100000D+01
     11  0.000000D+00  0.000000D+00  0.000000D+00  0.000000D+00  0.000000D+00
     12  0.000000D+00  0.000000D+00  0.000000D+00  0.000000D+00  0.000000D+00
               11            12 
     11  0.100000D+01
     12  0.000000D+00  0.100000D+01
 TstOVc:  Largest diagonal error= 2.22D-15 IB=1 I=    2.
 TstOVc:  Largest same sym error= 1.07D-15 IB=1 I=   12 J=    2.
 Orthogonalized basis functions: 
                 1             2             3             4             5 
      1   0.159648D+00 -0.242703D-01  0.000000D+00  0.000000D+00 -0.183109D+00
      2   0.448758D+00 -0.446736D-01  0.000000D+00  0.000000D+00 -0.431418D-01
      3   0.000000D+00  0.000000D+00  0.579208D+00  0.000000D+00  0.000000D+00
      4   0.000000D+00  0.000000D+00  0.000000D+00  0.643547D+00  0.000000D+00
      5   0.301088D-01  0.546796D+00  0.000000D+00  0.000000D+00 -0.188611D+00
      6   0.717000D-01  0.187687D+00  0.000000D+00  0.000000D+00  0.583783D+00
      7   0.229601D+00  0.372003D+00  0.000000D+00  0.000000D+00  0.360057D+00
      8   0.000000D+00  0.000000D+00  0.257066D+00  0.000000D+00  0.000000D+00
      9   0.000000D+00  0.000000D+00  0.000000D+00  0.643547D+00  0.000000D+00
     10  -0.195391D+00 -0.194483D+00  0.000000D+00  0.000000D+00  0.579827D+00
     11   0.286260D+00 -0.226037D+00  0.342044D+00  0.000000D+00  0.751735D-01
     12   0.286260D+00 -0.226037D+00 -0.342044D+00  0.000000D+00  0.751735D-01
                 6             7             8             9            10 
      1   0.961000D+00  0.000000D+00  0.700322D-01  0.000000D+00  0.000000D+00
      2  -0.371889D-01  0.000000D+00 -0.886785D-01  0.000000D+00  0.000000D+00
      3   0.000000D+00 -0.148986D+00  0.000000D+00  0.000000D+00  0.116670D+01
      4   0.000000D+00  0.000000D+00  0.000000D+00  0.794193D+00  0.000000D+00
      5  -0.290885D-01  0.000000D+00 -0.178642D+00  0.000000D+00  0.000000D+00
      6   0.697719D-01  0.000000D+00  0.792951D+00  0.000000D+00  0.000000D+00
      7   0.626124D-02  0.000000D+00 -0.469567D+00  0.000000D+00  0.000000D+00
      8   0.000000D+00  0.960285D+00  0.000000D+00  0.000000D+00 -0.255027D+00
      9   0.000000D+00  0.000000D+00  0.000000D+00 -0.794193D+00  0.000000D+00
     10   0.258674D+00  0.000000D+00 -0.540049D+00  0.000000D+00  0.000000D+00
     11  -0.160264D+00 -0.234710D+00 -0.359272D-01  0.000000D+00 -0.891999D+00
     12  -0.160264D+00  0.234710D+00 -0.359272D-01  0.000000D+00  0.891999D+00
                11            12 
      1   0.103676D+00 -0.299982D+00
      2  -0.408511D+00  0.149062D+01
      3   0.000000D+00  0.000000D+00
      4   0.000000D+00  0.000000D+00
      5   0.113701D+01  0.387709D+00
      6   0.162594D+00  0.167857D+00
      7  -0.727799D+00 -0.846084D+00
      8   0.000000D+00  0.000000D+00
      9   0.000000D+00  0.000000D+00
     10   0.486926D+00  0.645583D+00
     11   0.669187D+00 -0.566521D+00
     12   0.669187D+00 -0.566521D+00
 NBasis=    12 RedAO= T EigKep=  2.34D-01  NBF=    12
 NBsUse=    12 1.00D-06 EigRej= -1.00D+00 NBFU=    12
 SSO for IR=          1
                 1             2             3             4             5 
      1   0.100000D+01  0.000000D+00  0.000000D+00  0.000000D+00  0.000000D+00
      2   0.000000D+00  0.100000D+01  0.000000D+00  0.000000D+00  0.000000D+00
      3   0.000000D+00  0.000000D+00  0.100000D+01  0.000000D+00  0.000000D+00
      4   0.000000D+00  0.000000D+00  0.000000D+00  0.100000D+01  0.000000D+00
      5   0.000000D+00  0.000000D+00  0.000000D+00  0.000000D+00  0.100000D+01
      6   0.000000D+00  0.000000D+00  0.000000D+00  0.000000D+00  0.000000D+00
      7   0.000000D+00  0.000000D+00  0.000000D+00  0.000000D+00  0.000000D+00
      8   0.000000D+00  0.000000D+00  0.000000D+00  0.000000D+00  0.000000D+00
                 6             7             8 
      1   0.000000D+00  0.000000D+00  0.000000D+00
      2   0.000000D+00  0.000000D+00  0.000000D+00
      3   0.000000D+00  0.000000D+00  0.000000D+00
      4   0.000000D+00  0.000000D+00  0.000000D+00
      5   0.000000D+00  0.000000D+00  0.000000D+00
      6   0.100000D+01  0.000000D+00  0.000000D+00
      7   0.000000D+00  0.100000D+01  0.000000D+00
      8   0.000000D+00  0.000000D+00  0.100000D+01
 SVDSVc IOpt=   1 NormSV=T IR=1
 SVDSVc V= 1.00D+00 1.00D+00 1.00D+00 1.00D+00 1.00D+00 1.00D+00 1.00D+00 1.00D+00
 V for IR=          1
                 1             2             3             4             5 
      1  -0.100971D+00  0.000000D+00  0.000000D+00  0.700324D+00  0.699397D+00
      2   0.699861D+00  0.000000D+00  0.000000D+00  0.101038D+00  0.100904D+00
      3   0.000000D+00  0.908092D-03  0.707107D+00 -0.772592D-04  0.773615D-04
      4   0.000000D+00  0.707106D+00 -0.908119D-03  0.000000D+00  0.000000D+00
      5  -0.100971D+00  0.000000D+00 -0.765487D-04 -0.699397D+00  0.700324D+00
      6  -0.699861D+00  0.000000D+00  0.108274D-04  0.100904D+00 -0.101038D+00
      7   0.000000D+00  0.905093D-03  0.707106D+00  0.000000D+00  0.000000D+00
      8   0.000000D+00  0.707106D+00 -0.905067D-03  0.000000D+00  0.000000D+00
                 6             7             8 
      1   0.000000D+00  0.000000D+00 -0.100971D+00
      2   0.000000D+00  0.000000D+00  0.699861D+00
      3  -0.885939D-03  0.707106D+00  0.000000D+00
      4   0.707106D+00  0.885967D-03  0.000000D+00
      5   0.000000D+00 -0.765486D-04  0.100971D+00
      6   0.000000D+00  0.108274D-04  0.699861D+00
      7   0.888992D-03 -0.707107D+00  0.000000D+00
      8  -0.707106D+00 -0.888964D-03  0.000000D+00
 Vt*S*V: 
                1             2             3             4             5 
      1  0.100000D+01
      2  0.000000D+00  0.100000D+01
      3  0.000000D+00  0.000000D+00  0.100000D+01
      4  0.000000D+00  0.000000D+00  0.000000D+00  0.100000D+01
      5  0.000000D+00  0.000000D+00  0.000000D+00  0.000000D+00  0.100000D+01
      6  0.000000D+00  0.000000D+00  0.000000D+00  0.000000D+00  0.000000D+00
      7  0.000000D+00  0.000000D+00  0.000000D+00  0.000000D+00  0.000000D+00
      8  0.000000D+00  0.000000D+00  0.000000D+00  0.000000D+00  0.000000D+00
                6             7             8 
      6  0.100000D+01
      7  0.000000D+00  0.100000D+01
      8  0.000000D+00  0.000000D+00  0.100000D+01
 TstOVc:  Largest diagonal error= 8.88D-16 IB=1 I=    8.
 TstOVc:  Largest same sym error= 7.77D-16 IB=1 I=    7 J=    4.
 NEO NBasis=     8 RedAO= T EigKep=  1.00D+00  NBF=     8
 NEO NBsUse=     8 1.00D-06 EigRej= -1.00D+00 NBFU=     8
 Leave Link  302 at Tue Apr 19 10:40:43 2022, MaxMem= 13421772800 cpu:               3.1 elap:               0.2
 (Enter /home/software/gaussian/gdv/j19/gdv/l303.exe)
 GetPMM: IRwPM=    824 LRwPM=      0 LPMAll=      2
 DipDrv:  MaxL=1.
 MemDpI: Int=      800000 Cav=           0 CFW=           0 Tot=      800000
 DipPsm:  J= 1 NJ= 4 MaxL=1 MMat= 4 MaxMat= 4.
 DipInt: DoE/N= T F RetVal/Mat= F T Init=T NMatP=  4 IDeriv=0 Min/MaxMlt=  0  1
 Entering OneElI...
 OneElI was handed 13421772469 working-precision words.
 Multipole integrals L=0 to 1 MinM= 0 MaxM= 3.
 Requested accuracy = 0.1000D-12
 ShPair: Thresh= 1.00D-13 NBox=     0 BxSize= 0.00D+00 RnKept= 3.77D+00
         NSMCal=                   21 NSMKep=                  21
 PrmmSu-InSpLW:  IPartL=    0 NPrtUS=    1 NPrtUL=    1 DoSpLW=F IThBeg=    0 IThEnd=    0 NThAct=    1.
 PrSmSu:  IncTry=   512 NBBP=             21 NTPThr=   100 NPartT=    1 Incr=           1 LDynOK=F GPUOK=F.
 PrsmSu:  NPrtUS=   1 ThrOK=F IAlg=2 LenDen=           0 ISkipM=0 DoSpLW=F IThBeg=    0 IThEnd=    0.
 Prism:   IPart=     0 DynPar=F LinDyn=F Incr=           1.
 PRISM was handed 13421768299 working-precision words and    21 shell-pairs
 IPart=  0 NShTot=          21 NBatch=           5 AvBLen=         4.2
 PrsmSu-ThDecC:  IPartSL=    0    0 NPrtUSL=    1    1 IThBeg=    0 IThEnd=    0 CPU=   -1 GPU=   -1 NThAct=    1.
 PrSmSu:  NxtVal=              2.
 Multipole matrices IBuc=   518 IX=    1 IJ=           1:
                1             2             3             4             5 
      1  0.000000D+00
      2  0.000000D+00  0.000000D+00
      3  0.718555D-01  0.838744D+00  0.000000D+00
      4  0.000000D+00  0.000000D+00  0.000000D+00  0.000000D+00
      5  0.000000D+00  0.000000D+00  0.000000D+00  0.000000D+00  0.000000D+00
      6  0.000000D+00  0.000000D+00  0.154754D-02  0.000000D+00  0.000000D+00
      7  0.000000D+00  0.000000D+00  0.208446D+00  0.000000D+00  0.000000D+00
      8  0.278626D-02  0.243486D+00  0.000000D+00  0.000000D+00  0.281959D+00
      9  0.000000D+00  0.000000D+00  0.000000D+00  0.000000D+00  0.000000D+00
     10  0.000000D+00  0.000000D+00 -0.195924D+00  0.000000D+00  0.000000D+00
     11  0.725356D-02  0.460637D+00  0.726267D+00  0.000000D+00 -0.212674D+00
     12 -0.725356D-02 -0.460637D+00  0.726267D+00  0.000000D+00  0.212674D+00
                6             7             8             9            10 
      6  0.000000D+00
      7  0.000000D+00  0.000000D+00
      8  0.507919D-01  0.641173D+00  0.000000D+00
      9  0.000000D+00  0.000000D+00  0.000000D+00  0.000000D+00
     10  0.000000D+00  0.000000D+00  0.000000D+00  0.000000D+00  0.000000D+00
     11  0.177650D-03  0.458994D-01  0.776976D-01  0.000000D+00 -0.462257D-01
     12 -0.177650D-03 -0.458994D-01  0.776976D-01  0.000000D+00  0.462257D-01
               11            12 
     11  0.176747D+01
     12  0.000000D+00 -0.176747D+01
 Multipole matrices IBuc=   518 IX=    2 IJ=           1:
                1             2             3             4             5 
      1  0.000000D+00
      2  0.000000D+00  0.000000D+00
      3  0.000000D+00  0.000000D+00  0.000000D+00
      4  0.718555D-01  0.838744D+00  0.000000D+00  0.000000D+00
      5  0.000000D+00  0.000000D+00  0.000000D+00  0.000000D+00  0.000000D+00
      6  0.000000D+00  0.000000D+00  0.000000D+00  0.154754D-02  0.000000D+00
      7  0.000000D+00  0.000000D+00  0.000000D+00  0.208446D+00  0.000000D+00
      8  0.000000D+00  0.000000D+00  0.000000D+00  0.000000D+00  0.000000D+00
      9  0.278626D-02  0.243486D+00  0.000000D+00  0.000000D+00  0.281959D+00
     10  0.000000D+00  0.000000D+00  0.000000D+00 -0.195924D+00  0.000000D+00
     11  0.000000D+00  0.000000D+00  0.000000D+00  0.357906D+00  0.000000D+00
     12  0.000000D+00  0.000000D+00  0.000000D+00  0.357906D+00  0.000000D+00
                6             7             8             9            10 
      6  0.000000D+00
      7  0.000000D+00  0.000000D+00
      8  0.000000D+00  0.000000D+00  0.000000D+00
      9  0.507919D-01  0.641173D+00  0.000000D+00  0.000000D+00
     10  0.000000D+00  0.000000D+00  0.000000D+00  0.000000D+00  0.000000D+00
     11  0.000000D+00  0.000000D+00  0.000000D+00  0.531321D-01  0.000000D+00
     12  0.000000D+00  0.000000D+00  0.000000D+00  0.531321D-01  0.000000D+00
               11            12 
     11  0.000000D+00
     12  0.000000D+00  0.000000D+00
 Multipole matrices IBuc=   518 IX=    3 IJ=           1:
                1             2             3             4             5 
      1  0.000000D+00
      2  0.000000D+00  0.000000D+00
      3  0.000000D+00  0.000000D+00  0.000000D+00
      4  0.000000D+00  0.000000D+00  0.000000D+00  0.000000D+00
      5  0.718555D-01  0.838744D+00  0.000000D+00  0.000000D+00  0.000000D+00
      6  0.151767D-05  0.808209D-01  0.000000D+00  0.000000D+00  0.135636D+00
      7  0.662221D-02  0.511629D+00  0.000000D+00  0.000000D+00  0.766810D+00
      8  0.000000D+00  0.000000D+00  0.281959D+00  0.000000D+00  0.000000D+00
      9  0.000000D+00  0.000000D+00  0.000000D+00  0.281959D+00  0.000000D+00
     10 -0.103935D-01 -0.228344D+00  0.000000D+00  0.000000D+00 -0.320781D+00
     11 -0.418784D-02 -0.265949D+00 -0.212674D+00  0.000000D+00  0.480693D+00
     12 -0.418784D-02 -0.265949D+00  0.212674D+00  0.000000D+00  0.480693D+00
                6             7             8             9            10 
      6  0.230547D+01
      7  0.545713D+00  0.230547D+01
      8  0.000000D+00  0.000000D+00  0.230547D+01
      9  0.000000D+00  0.000000D+00  0.000000D+00  0.230547D+01
     10  0.507919D-01  0.641173D+00  0.000000D+00  0.000000D+00  0.230547D+01
     11  0.113447D-01  0.911393D-01  0.459470D-01  0.000000D+00 -0.333279D-01
     12  0.113447D-01  0.911393D-01 -0.459470D-01  0.000000D+00 -0.333279D-01
               11            12 
     11 -0.102045D+01
     12 -0.149881D+00 -0.102045D+01
 ReDoC1: IPurDI=1 IPurFI=1 IPurDO=0 IPurFO=0.
 Fermi contact integrals: 
                 1             2             3             4 
      1   0.614289D+01  0.000000D+00  0.000000D+00  0.000000D+00
      2   0.215555D+00  0.552211D-01  0.764148D-01  0.764148D-01
      3   0.000000D+00  0.000000D+00  0.114926D+00 -0.114926D+00
      4   0.000000D+00  0.000000D+00  0.000000D+00  0.000000D+00
      5   0.000000D+00  0.931354D-01 -0.663526D-01 -0.663526D-01
      6   0.000000D+00  0.964586D+01  0.000000D+00  0.000000D+00
      7   0.326414D-01  0.322507D+00  0.109590D-02  0.109590D-02
      8   0.000000D+00  0.000000D+00  0.133772D-02 -0.133772D-02
      9   0.000000D+00  0.000000D+00  0.000000D+00  0.000000D+00
     10  -0.557991D-01  0.000000D+00 -0.251724D-02 -0.251724D-02
     11   0.612318D-01  0.764638D-02  0.628247D+00  0.102304D-01
     12   0.612318D-01  0.764638D-02  0.102304D-01  0.628247D+00
 Leave Link  303 at Tue Apr 19 10:40:43 2022, MaxMem= 13421772800 cpu:               1.1 elap:               0.2
 (Enter /home/software/gaussian/gdv/j19/gdv/l401.exe)
 Initial guess wavefunction:
 SetAtRh:  ITypeU=  14 NETotI=      16 ICharg=  0 NETot=      16.
 StAtR1:  I=    1 I1=    1 IA=  6 C=   6.0 OKShel=TTT
                                                  SSP
                                                  222
 StAtR1:  I=    2 I1=    2 IA=  8 C=   8.0 OKShel=TTT
                                                  SSP
                                                  224
 StAtR1:  I=    3 I1=    3 IA=  1 C=   1.0 OKShel=T
                                                  S
                                                  1
 StAtR1:  I=    4 I1=    4 IA=  1 C=   1.0 OKShel=T
                                                  S
                                                  1
          I=    1 IA=  6 I1=    1 NAtG=12 NE=   6.000 C=   6.000 Err=-4.82D-12
          I=    2 IA=  8 I1=    2 NAtG=12 NE=   8.000 C=   8.000 Err= 3.76D-12
          I=    3 IA=  1 I1=    3 NAtG=10 NE=   1.000 C=   1.000 Err=-1.35D-12
          I=    4 IA=  1 I1=    4 NAtG=10 NE=   1.000 C=   1.000 Err=-1.35D-12
 ShPair: Thresh= 1.00D-12 NBox=     0 BxSize= 0.00D+00 RnKept= 3.77D+00
         NSMCal=                   21 NSMKep=                  21
 ExpMin= 1.69D-01 ExpMax= 1.31D+02 ExpMxC= 1.31D+02 IAcc=3 IRadAn=         5 AccDes= 0.00D+00
 ReadGW:  IGet=1 IStart=           1 Next=           1 LGW=           0.
 SetAtRh:  ITypeU=  23 NETotI=       0 ICharg=  0 NETot=       0.
 StAtR1:  I=    1 I1=    1 IA=  6 C=   6.0 OKShel=TTT
                                                  SSP
                                                  222
 StAtR1:  I=    2 I1=    2 IA=  8 C=   8.0 OKShel=TTT
                                                  SSP
                                                  224
 StAtR1:  I=    3 I1=    3 IA=  1 C=   1.0 OKShel=T
                                                  S
                                                  1
 StAtR1:  I=    4 I1=    4 IA=  1 C=   1.0 OKShel=T
                                                  S
                                                  1
          I=    1 IA=  6 I1=    1 NAtG= 0 NE=   6.000 C=   0.000 Err=-6.00D+00
          I=    2 IA=  8 I1=    2 NAtG= 0 NE=   8.000 C=   0.000 Err=-8.00D+00
          I=    3 IA=  1 I1=    3 NAtG= 0 NE=   1.000 C=   0.000 Err=-1.00D+00
          I=    4 IA=  1 I1=    4 NAtG= 0 NE=   1.000 C=   0.000 Err=-1.00D+00
 Pruned (  99, 590) grid will be used in numerical quadrature.
 Pruned (  99, 590) grid will be used in numerical quadrature.
 Atom   3 batch    1 overlaps   4 atoms and    5 shells. NGrid=        86
 Pruned (  99, 590) grid will be used in numerical quadrature.
 Atom   2 batch    1 overlaps   4 atoms and    6 shells. NGrid=        86
 Atom   4 batch    1 overlaps   4 atoms and    5 shells. NGrid=        86
 Pruned (  99, 590) grid will be used in numerical quadrature.
 Atom   3 batch    2 overlaps   4 atoms and    5 shells. NGrid=        86
 Atom   2 batch    2 overlaps   4 atoms and    6 shells. NGrid=        86
 Atom   4 batch    2 overlaps   4 atoms and    5 shells. NGrid=        86
 Atom   2 batch    3 overlaps   4 atoms and    6 shells. NGrid=        86
 Atom   4 batch    3 overlaps   4 atoms and    5 shells. NGrid=        86
 Atom   2 batch    4 overlaps   4 atoms and    6 shells. NGrid=        86
 Atom   4 batch    4 overlaps   4 atoms and    5 shells. NGrid=        86
 Atom   2 batch    5 overlaps   4 atoms and    6 shells. NGrid=        86
 Atom   4 batch    5 overlaps   4 atoms and    5 shells. NGrid=        86
 Atom   2 batch    6 overlaps   4 atoms and    6 shells. NGrid=        86
 Atom   4 batch    6 overlaps   4 atoms and    5 shells. NGrid=        86
 Atom   2 batch    7 overlaps   4 atoms and    6 shells. NGrid=        86
 Atom   3 batch    3 overlaps   4 atoms and    5 shells. NGrid=        86
 Atom   1 batch    1 overlaps   4 atoms and    6 shells. NGrid=        86
 Atom   3 batch    4 overlaps   4 atoms and    5 shells. NGrid=        86
 Atom   4 batch    7 overlaps   4 atoms and    5 shells. NGrid=        86
 Atom   3 batch    5 overlaps   4 atoms and    5 shells. NGrid=        86
 Atom   2 batch    8 overlaps   4 atoms and    6 shells. NGrid=        86
 Atom   4 batch    8 overlaps   4 atoms and    5 shells. NGrid=        86
 Atom   3 batch    6 overlaps   4 atoms and    5 shells. NGrid=        86
 Atom   4 batch    9 overlaps   4 atoms and    5 shells. NGrid=        86
 Atom   3 batch    7 overlaps   4 atoms and    5 shells. NGrid=        86
 Atom   2 batch    9 overlaps   4 atoms and    6 shells. NGrid=        86
 Atom   3 batch    8 overlaps   4 atoms and    5 shells. NGrid=        86
 Atom   2 batch   10 overlaps   4 atoms and    6 shells. NGrid=        86
 Atom   1 batch    2 overlaps   4 atoms and    6 shells. NGrid=        86
 Atom   2 batch   11 overlaps   4 atoms and    6 shells. NGrid=        86
 Atom   1 batch    3 overlaps   4 atoms and    6 shells. NGrid=        86
 Atom   2 batch   12 overlaps   4 atoms and    6 shells. NGrid=        86
 Atom   3 batch    9 overlaps   4 atoms and    5 shells. NGrid=        86
 Atom   2 batch   13 overlaps   4 atoms and    6 shells. NGrid=        86
 Atom   1 batch    4 overlaps   4 atoms and    6 shells. NGrid=        86
 Atom   2 batch   14 overlaps   4 atoms and    6 shells. NGrid=        86
 Atom   1 batch    5 overlaps   4 atoms and    6 shells. NGrid=        86
 Atom   2 batch   15 overlaps   4 atoms and    6 shells. NGrid=        86
 Atom   1 batch    6 overlaps   4 atoms and    6 shells. NGrid=        86
 Atom   2 batch   16 overlaps   4 atoms and    6 shells. NGrid=        86
 Atom   1 batch    7 overlaps   4 atoms and    6 shells. NGrid=        86
 Atom   2 batch   17 overlaps   4 atoms and    6 shells. NGrid=        86
 Atom   1 batch    8 overlaps   4 atoms and    6 shells. NGrid=        86
 Atom   3 batch   10 overlaps   4 atoms and    5 shells. NGrid=        86
 Atom   1 batch    9 overlaps   4 atoms and    6 shells. NGrid=        86
 Atom   3 batch   11 overlaps   4 atoms and    5 shells. NGrid=        86
 Atom   1 batch   10 overlaps   4 atoms and    6 shells. NGrid=        86
 Atom   3 batch   12 overlaps   4 atoms and    5 shells. NGrid=        86
 Atom   1 batch   11 overlaps   4 atoms and    6 shells. NGrid=        86
 Atom   3 batch   13 overlaps   4 atoms and    5 shells. NGrid=        86
 Atom   1 batch   12 overlaps   4 atoms and    6 shells. NGrid=        86
 Atom   3 batch   14 overlaps   4 atoms and    5 shells. NGrid=        86
 Atom   1 batch   13 overlaps   4 atoms and    6 shells. NGrid=        86
 Atom   2 batch   18 overlaps   4 atoms and    6 shells. NGrid=        86
 Atom   3 batch   15 overlaps   4 atoms and    5 shells. NGrid=        86
 Atom   2 batch   19 overlaps   4 atoms and    6 shells. NGrid=        86
 Atom   3 batch   16 overlaps   4 atoms and    5 shells. NGrid=        86
 Atom   2 batch   20 overlaps   4 atoms and    6 shells. NGrid=        86
 Atom   3 batch   17 overlaps   4 atoms and    5 shells. NGrid=        86
 Atom   2 batch   21 overlaps   4 atoms and    6 shells. NGrid=        86
 Atom   1 batch   14 overlaps   4 atoms and    6 shells. NGrid=        86
 Atom   4 batch   10 overlaps   4 atoms and    5 shells. NGrid=        86
 Atom   1 batch   15 overlaps   4 atoms and    6 shells. NGrid=        86
 Atom   4 batch   11 overlaps   4 atoms and    5 shells. NGrid=        86
 Atom   2 batch   22 overlaps   4 atoms and    6 shells. NGrid=        86
 Atom   4 batch   12 overlaps   4 atoms and    5 shells. NGrid=        86
 Atom   2 batch   23 overlaps   4 atoms and    6 shells. NGrid=        86
 Atom   4 batch   13 overlaps   4 atoms and    5 shells. NGrid=        86
 Atom   2 batch   24 overlaps   4 atoms and    6 shells. NGrid=        86
 Atom   1 batch   16 overlaps   4 atoms and    6 shells. NGrid=        86
 Atom   2 batch   25 overlaps   4 atoms and    6 shells. NGrid=        86
 Atom   1 batch   17 overlaps   4 atoms and    6 shells. NGrid=        86
 Atom   2 batch   26 overlaps   4 atoms and    6 shells. NGrid=        86
 Atom   1 batch   18 overlaps   4 atoms and    6 shells. NGrid=        86
 Atom   2 batch   27 overlaps   4 atoms and    6 shells. NGrid=        86
 Atom   1 batch   19 overlaps   4 atoms and    6 shells. NGrid=        86
 Atom   4 batch   14 overlaps   4 atoms and    5 shells. NGrid=        86
 Atom   1 batch   20 overlaps   4 atoms and    6 shells. NGrid=        86
 Atom   3 batch   18 overlaps   4 atoms and    5 shells. NGrid=        86
 Atom   1 batch   21 overlaps   4 atoms and    6 shells. NGrid=        86
 Atom   2 batch   28 overlaps   4 atoms and    6 shells. NGrid=        86
 Atom   3 batch   19 overlaps   4 atoms and    5 shells. NGrid=        86
 Atom   4 batch   15 overlaps   4 atoms and    5 shells. NGrid=        86
 Atom   1 batch   22 overlaps   4 atoms and    6 shells. NGrid=        86
 Atom   3 batch   20 overlaps   4 atoms and    5 shells. NGrid=        86
 Atom   4 batch   16 overlaps   4 atoms and    5 shells. NGrid=        86
 Atom   1 batch   23 overlaps   4 atoms and    6 shells. NGrid=        86
 Atom   2 batch   29 overlaps   4 atoms and    6 shells. NGrid=       194
 Atom   3 batch   21 overlaps   4 atoms and    5 shells. NGrid=        86
 Atom   1 batch   24 overlaps   4 atoms and    6 shells. NGrid=        86
 Atom   4 batch   17 overlaps   4 atoms and    5 shells. NGrid=        86
 Atom   3 batch   22 overlaps   4 atoms and    5 shells. NGrid=        86
 Atom   4 batch   18 overlaps   4 atoms and    5 shells. NGrid=        86
 Atom   3 batch   23 overlaps   4 atoms and    5 shells. NGrid=        86
 Atom   4 batch   19 overlaps   4 atoms and    5 shells. NGrid=        86
 Atom   3 batch   24 overlaps   4 atoms and    5 shells. NGrid=        86
 Atom   4 batch   20 overlaps   4 atoms and    5 shells. NGrid=        86
 Atom   3 batch   25 overlaps   4 atoms and    5 shells. NGrid=        86
 Atom   4 batch   21 overlaps   4 atoms and    5 shells. NGrid=        86
 Atom   3 batch   26 overlaps   4 atoms and    5 shells. NGrid=        86
 Atom   4 batch   22 overlaps   4 atoms and    5 shells. NGrid=        86
 Atom   1 batch   25 overlaps   4 atoms and    6 shells. NGrid=        86
 Atom   4 batch   23 overlaps   4 atoms and    5 shells. NGrid=        86
 Atom   1 batch   26 overlaps   4 atoms and    6 shells. NGrid=        86
 Atom   4 batch   24 overlaps   4 atoms and    5 shells. NGrid=        86
 Atom   2 batch   30 overlaps   4 atoms and    6 shells. NGrid=       194
 Atom   4 batch   25 overlaps   4 atoms and    5 shells. NGrid=        86
 Atom   1 batch   27 overlaps   4 atoms and    6 shells. NGrid=        86
 Atom   4 batch   26 overlaps   4 atoms and    5 shells. NGrid=        86
 Atom   4 batch   27 overlaps   4 atoms and    5 shells. NGrid=        86
 Atom   1 batch   28 overlaps   4 atoms and    6 shells. NGrid=        86
 Atom   4 batch   28 overlaps   4 atoms and    5 shells. NGrid=        86
 Atom   3 batch   27 overlaps   4 atoms and    5 shells. NGrid=        86
 Atom   1 batch   29 overlaps   4 atoms and    6 shells. NGrid=       194
 Atom   3 batch   28 overlaps   4 atoms and    5 shells. NGrid=        86
 Atom   4 batch   29 overlaps   4 atoms and    5 shells. NGrid=        86
 Atom   3 batch   29 overlaps   4 atoms and    5 shells. NGrid=        86
 Atom   4 batch   30 overlaps   4 atoms and    5 shells. NGrid=        86
 Atom   3 batch   30 overlaps   4 atoms and    5 shells. NGrid=        86
 Atom   2 batch   31 overlaps   4 atoms and    6 shells. NGrid=       194
 Atom   3 batch   31 overlaps   4 atoms and    5 shells. NGrid=        86
 Atom   4 batch   31 overlaps   4 atoms and    5 shells. NGrid=        86
 Atom   1 batch   30 overlaps   4 atoms and    6 shells. NGrid=       194
 Atom   4 batch   32 overlaps   4 atoms and    5 shells. NGrid=        86
 Atom   3 batch   32 overlaps   4 atoms and    5 shells. NGrid=        86
 Atom   2 batch   32 overlaps   4 atoms and    6 shells. NGrid=       194
 Atom   3 batch   33 overlaps   4 atoms and    5 shells. NGrid=        86
 Atom   4 batch   33 overlaps   4 atoms and    5 shells. NGrid=        86
 Atom   3 batch   34 overlaps   4 atoms and    5 shells. NGrid=       194
 Atom   1 batch   31 overlaps   4 atoms and    6 shells. NGrid=       194
 Atom   2 batch   33 overlaps   4 atoms and    6 shells. NGrid=       194
 Atom   4 batch   34 overlaps   4 atoms and    5 shells. NGrid=       194
 Atom   3 batch   35 overlaps   4 atoms and    5 shells. NGrid=       194
 Atom   1 batch   32 overlaps   4 atoms and    6 shells. NGrid=       194
 Atom   2 batch   34 overlaps   4 atoms and    6 shells. NGrid=       194
 Atom   3 batch   36 overlaps   4 atoms and    5 shells. NGrid=       194
 Atom   4 batch   35 overlaps   4 atoms and    5 shells. NGrid=       194
 Atom   3 batch   37 overlaps   4 atoms and    5 shells. NGrid=       194
 Atom   1 batch   33 overlaps   4 atoms and    6 shells. NGrid=       194
 Atom   4 batch   36 overlaps   4 atoms and    5 shells. NGrid=       194
 Atom   2 batch   35 overlaps   4 atoms and    6 shells. NGrid=       194
 Atom   3 batch   38 overlaps   4 atoms and    5 shells. NGrid=       194
 Atom   4 batch   37 overlaps   4 atoms and    5 shells. NGrid=       194
 Atom   1 batch   34 overlaps   4 atoms and    6 shells. NGrid=       194
 Atom   2 batch   36 overlaps   4 atoms and    6 shells. NGrid=       194
 Atom   3 batch   39 overlaps   4 atoms and    5 shells. NGrid=       194
 Atom   4 batch   38 overlaps   4 atoms and    5 shells. NGrid=       194
 Atom   3 batch   40 overlaps   4 atoms and    5 shells. NGrid=       194
 Atom   1 batch   35 overlaps   4 atoms and    6 shells. NGrid=       194
 Atom   4 batch   39 overlaps   4 atoms and    5 shells. NGrid=       194
 Atom   2 batch   37 overlaps   4 atoms and    6 shells. NGrid=       194
 Atom   3 batch   41 overlaps   4 atoms and    5 shells. NGrid=       194
 Atom   4 batch   40 overlaps   4 atoms and    5 shells. NGrid=       194
 Atom   1 batch   36 overlaps   4 atoms and    6 shells. NGrid=       194
 Atom   2 batch   38 overlaps   4 atoms and    6 shells. NGrid=       194
 Atom   3 batch   42 overlaps   4 atoms and    5 shells. NGrid=       302
 Atom   4 batch   41 overlaps   4 atoms and    5 shells. NGrid=       194
 Atom   1 batch   37 overlaps   4 atoms and    6 shells. NGrid=       194
 Atom   2 batch   39 overlaps   4 atoms and    6 shells. NGrid=       194
 Atom   3 batch   43 overlaps   4 atoms and    5 shells. NGrid=       302
 Atom   4 batch   42 overlaps   4 atoms and    5 shells. NGrid=       302
 Atom   1 batch   38 overlaps   4 atoms and    6 shells. NGrid=       194
 Atom   2 batch   40 overlaps   4 atoms and    6 shells. NGrid=       194
 Atom   3 batch   44 overlaps   4 atoms and    5 shells. NGrid=       302
 Atom   4 batch   43 overlaps   4 atoms and    5 shells. NGrid=       302
 Atom   1 batch   39 overlaps   4 atoms and    6 shells. NGrid=       194
 Atom   3 batch   45 overlaps   4 atoms and    5 shells. NGrid=       302
[...]
           NShCPU=          21 NBCPU=          19 AvBCPU=         1.1
           NShGPU=           0 NBGPU=           0 AvBGPU=         0.0
 CoulSu-ThDecC:  IPartSL=    9    0 NPrtUSL=   30    1 IThBeg=    0 IThEnd=   29 CPU=   -1 GPU=   -1 NThAct=   21.
 IPart= 28 NShTot=           6 NShNF=           6 NShFF=           0 MinMC=      17
           NShCPU=           6 NBCPU=           6 AvBCPU=         1.0
           NShGPU=           0 NBGPU=           0 AvBGPU=         0.0
 CoulSu-ThDecC:  IPartSL=   28    0 NPrtUSL=   30    1 IThBeg=    0 IThEnd=   29 CPU=   -1 GPU=   -1 NThAct=   20.
 IPart= 21 NShTot=           6 NShNF=           6 NShFF=           0 MinMC=      17
           NShCPU=           6 NBCPU=           6 AvBCPU=         1.0
           NShGPU=           0 NBGPU=           0 AvBGPU=         0.0
 CoulSu-ThDecC:  IPartSL=   21    0 NPrtUSL=   30    1 IThBeg=    0 IThEnd=   29 CPU=   -1 GPU=   -1 NThAct=   19.
 IPart= 18 NShTot=           8 NShNF=           8 NShFF=           0 MinMC=      17
           NShCPU=           8 NBCPU=           8 AvBCPU=         1.0
           NShGPU=           0 NBGPU=           0 AvBGPU=         0.0
 CoulSu-ThDecC:  IPartSL=   18    0 NPrtUSL=   30    1 IThBeg=    0 IThEnd=   29 CPU=   -1 GPU=   -1 NThAct=   18.
 IPart= 24 NShTot=           6 NShNF=           6 NShFF=           0 MinMC=      17
           NShCPU=           6 NBCPU=           6 AvBCPU=         1.0
           NShGPU=           0 NBGPU=           0 AvBGPU=         0.0
 CoulSu-ThDecC:  IPartSL=   24    0 NPrtUSL=   30    1 IThBeg=    0 IThEnd=   29 CPU=   -1 GPU=   -1 NThAct=   17.
 IPart=  1 NShTot=          46 NShNF=          46 NShFF=           0 MinMC=      17
           NShCPU=          46 NBCPU=          43 AvBCPU=         1.1
           NShGPU=           0 NBGPU=           0 AvBGPU=         0.0
 CoulSu-ThDecC:  IPartSL=    1    0 NPrtUSL=   30    1 IThBeg=    0 IThEnd=   29 CPU=   -1 GPU=   -1 NThAct=   16.
 IPart= 20 NShTot=           7 NShNF=           7 NShFF=           0 MinMC=      17
           NShCPU=           7 NBCPU=           7 AvBCPU=         1.0
           NShGPU=           0 NBGPU=           0 AvBGPU=         0.0
 CoulSu-ThDecC:  IPartSL=   20    0 NPrtUSL=   30    1 IThBeg=    0 IThEnd=   29 CPU=   -1 GPU=   -1 NThAct=   15.
 IPart= 16 NShTot=          10 NShNF=          10 NShFF=           0 MinMC=      17
           NShCPU=          10 NBCPU=           9 AvBCPU=         1.1
           NShGPU=           0 NBGPU=           0 AvBGPU=         0.0
 IPart= 12 NShTot=          14 NShNF=          14 NShFF=           0 MinMC=      17
           NShCPU=          14 NBCPU=          14 AvBCPU=         1.0
           NShGPU=           0 NBGPU=           0 AvBGPU=         0.0
 CoulSu-ThDecC:  IPartSL=   16    0 NPrtUSL=   30    1 IThBeg=    0 IThEnd=   29 CPU=   -1 GPU=   -1 NThAct=   14.
 CoulSu-ThDecC:  IPartSL=   12    0 NPrtUSL=   30    1 IThBeg=    0 IThEnd=   29 CPU=   -1 GPU=   -1 NThAct=   13.
 IPart=  7 NShTot=          26 NShNF=          26 NShFF=           0 MinMC=      17
           NShCPU=          26 NBCPU=          23 AvBCPU=         1.1
           NShGPU=           0 NBGPU=           0 AvBGPU=         0.0
 CoulSu-ThDecC:  IPartSL=    7    0 NPrtUSL=   30    1 IThBeg=    0 IThEnd=   29 CPU=   -1 GPU=   -1 NThAct=   12.
 IPart= 13 NShTot=          14 NShNF=          14 NShFF=           0 MinMC=      17
           NShCPU=          14 NBCPU=          14 AvBCPU=         1.0
           NShGPU=           0 NBGPU=           0 AvBGPU=         0.0
 IPart= 25 NShTot=           5 NShNF=           5 NShFF=           0 MinMC=      17
           NShCPU=           5 NBCPU=           5 AvBCPU=         1.0
           NShGPU=           0 NBGPU=           0 AvBGPU=         0.0
 IPart= 10 NShTot=          21 NShNF=          21 NShFF=           0 MinMC=      17
           NShCPU=          21 NBCPU=          19 AvBCPU=         1.1
           NShGPU=           0 NBGPU=           0 AvBGPU=         0.0
 IPart= 29 NShTot=           4 NShNF=           4 NShFF=           0 MinMC=      17
           NShCPU=           4 NBCPU=           4 AvBCPU=         1.0
           NShGPU=           0 NBGPU=           0 AvBGPU=         0.0
 CoulSu-ThDecC:  IPartSL=   13    0 NPrtUSL=   30    1 IThBeg=    0 IThEnd=   29 CPU=   -1 GPU=   -1 NThAct=   11.
 CoulSu-ThDecC:  IPartSL=   25    0 NPrtUSL=   30    1 IThBeg=    0 IThEnd=   29 CPU=   -1 GPU=   -1 NThAct=   10.
 CoulSu-ThDecC:  IPartSL=   29    0 NPrtUSL=   30    1 IThBeg=    0 IThEnd=   29 CPU=   -1 GPU=   -1 NThAct=    9.
 CoulSu-ThDecC:  IPartSL=   10    0 NPrtUSL=   30    1 IThBeg=    0 IThEnd=   29 CPU=   -1 GPU=   -1 NThAct=    8.
 IPart= 26 NShTot=           5 NShNF=           5 NShFF=           0 MinMC=      17
           NShCPU=           5 NBCPU=           5 AvBCPU=         1.0
           NShGPU=           0 NBGPU=           0 AvBGPU=         0.0
 CoulSu-ThDecC:  IPartSL=   26    0 NPrtUSL=   30    1 IThBeg=    0 IThEnd=   29 CPU=   -1 GPU=   -1 NThAct=    7.
 IPart= 23 NShTot=           4 NShNF=           4 NShFF=           0 MinMC=      17
           NShCPU=           4 NBCPU=           4 AvBCPU=         1.0
           NShGPU=           0 NBGPU=           0 AvBGPU=         0.0
 CoulSu-ThDecC:  IPartSL=   23    0 NPrtUSL=   30    1 IThBeg=    0 IThEnd=   29 CPU=   -1 GPU=   -1 NThAct=    6.
 IPart=  4 NShTot=          35 NShNF=          35 NShFF=           0 MinMC=      17
           NShCPU=          35 NBCPU=          32 AvBCPU=         1.1
           NShGPU=           0 NBGPU=           0 AvBGPU=         0.0
 CoulSu-ThDecC:  IPartSL=    4    0 NPrtUSL=   30    1 IThBeg=    0 IThEnd=   29 CPU=   -1 GPU=   -1 NThAct=    5.
 IPart=  6 NShTot=          27 NShNF=          27 NShFF=           0 MinMC=      17
           NShCPU=          27 NBCPU=          25 AvBCPU=         1.1
           NShGPU=           0 NBGPU=           0 AvBGPU=         0.0
 CoulSu-ThDecC:  IPartSL=    6    0 NPrtUSL=   30    1 IThBeg=    0 IThEnd=   29 CPU=   -1 GPU=   -1 NThAct=    4.
 IPart=  2 NShTot=          46 NShNF=          46 NShFF=           0 MinMC=      17
           NShCPU=          46 NBCPU=          43 AvBCPU=         1.1
           NShGPU=           0 NBGPU=           0 AvBGPU=         0.0
 CoulSu-ThDecC:  IPartSL=    2    0 NPrtUSL=   30    1 IThBeg=    0 IThEnd=   29 CPU=   -1 GPU=   -1 NThAct=    3.
 IPart=  5 NShTot=          36 NShNF=          36 NShFF=           0 MinMC=      17
           NShCPU=          36 NBCPU=          33 AvBCPU=         1.1
           NShGPU=           0 NBGPU=           0 AvBGPU=         0.0
 CoulSu-ThDecC:  IPartSL=    5    0 NPrtUSL=   30    1 IThBeg=    0 IThEnd=   29 CPU=   -1 GPU=   -1 NThAct=    2.
 IPart=  3 NShTot=          44 NShNF=          44 NShFF=           0 MinMC=      17
           NShCPU=          44 NBCPU=          41 AvBCPU=         1.1
           NShGPU=           0 NBGPU=           0 AvBGPU=         0.0
 CoulSu-ThDecC:  IPartSL=    3    0 NPrtUSL=   30    1 IThBeg=    0 IThEnd=   29 CPU=   -1 GPU=   -1 NThAct=    1.
 CoulSu:  NxtVal=             31 LenVP=      447388759 MinMC=      17.
 FoFCou EC=  43.5929400043     ENF=  43.5929400043    
 DebugFee:          0:
                1             2             3             4             5 
      1  0.111443D+02
      2  0.240076D+01  0.744064D+01
      3  0.000000D+00  0.000000D+00  0.749100D+01
      4  0.000000D+00  0.000000D+00  0.000000D+00  0.757972D+01
      5  0.843556D-01  0.844776D+00  0.000000D+00  0.000000D+00  0.796872D+01
      6 -0.264823D-03  0.446043D+00  0.000000D+00  0.000000D+00  0.753420D+00
      7  0.345111D+00  0.301157D+01  0.000000D+00  0.000000D+00  0.386250D+01
      8  0.000000D+00  0.000000D+00  0.158524D+01  0.000000D+00  0.000000D+00
      9  0.000000D+00  0.000000D+00  0.000000D+00  0.146943D+01  0.000000D+00
     10 -0.583786D+00 -0.276493D+01  0.000000D+00  0.000000D+00 -0.299401D+01
     11  0.607987D+00  0.307229D+01  0.238852D+01  0.000000D+00 -0.114710D+01
     12  0.607987D+00  0.307229D+01 -0.238852D+01  0.000000D+00 -0.114710D+01
                6             7             8             9            10 
      6  0.145118D+02
      7  0.293112D+01  0.892230D+01
      8  0.000000D+00  0.000000D+00  0.904711D+01
      9  0.000000D+00  0.000000D+00  0.000000D+00  0.927867D+01
     10 -0.359163D-01 -0.603466D+00  0.000000D+00  0.000000D+00  0.939702D+01
     11  0.620856D-01  0.590368D+00  0.277771D+00  0.000000D+00 -0.582865D+00
     12  0.620856D-01  0.590368D+00 -0.277771D+00  0.000000D+00 -0.582865D+00
               11            12 
     11  0.523722D+01
     12  0.835163D+00  0.523722D+01
 FNe from FoFNEO:          0:
                1             2             3             4             5 
      1  0.629814D+01
      2 -0.375846D+00  0.627808D+01
      3  0.000000D+00  0.000000D+00  0.619607D+01
      4  0.293356D+00 -0.527625D-01  0.000000D+00  0.624182D+01
      5  0.000000D+00  0.000000D+00  0.000000D+00  0.000000D+00  0.629814D+01
      6  0.000000D+00  0.000000D+00  0.000000D+00  0.000000D+00  0.375846D+00
      7  0.000000D+00  0.000000D+00  0.000000D+00  0.000000D+00  0.000000D+00
      8  0.000000D+00  0.000000D+00  0.000000D+00  0.000000D+00  0.293356D+00
                6             7             8 
      6  0.627808D+01
      7  0.000000D+00  0.619607D+01
      8  0.527625D-01  0.000000D+00  0.624182D+01
 FNe from FoFNEO:          0:
                1             2             3             4             5 
      1  0.629814D+01
      2 -0.375846D+00  0.627808D+01
      3  0.000000D+00  0.000000D+00  0.619607D+01
      4  0.293356D+00 -0.527625D-01  0.000000D+00  0.624182D+01
      5  0.000000D+00  0.000000D+00  0.000000D+00  0.000000D+00  0.629814D+01
      6  0.000000D+00  0.000000D+00  0.000000D+00  0.000000D+00  0.375846D+00
      7  0.000000D+00  0.000000D+00  0.000000D+00  0.000000D+00  0.000000D+00
      8  0.000000D+00  0.000000D+00  0.000000D+00  0.000000D+00  0.293356D+00
                6             7             8 
      6  0.627808D+01
      7  0.000000D+00  0.619607D+01
      8  0.527625D-01  0.000000D+00  0.624182D+01
 FN from l501:          0:
                1             2             3             4             5 
      1 -0.863467D+00
      2 -0.348065D+00  0.548859D+00
      3  0.000000D+00  0.000000D+00  0.597367D+00
      4  0.167490D+00  0.201668D-01  0.000000D+00  0.589218D+00
      5  0.000000D+00  0.000000D+00  0.000000D+00  0.000000D+00 -0.863467D+00
      6  0.000000D+00  0.000000D+00  0.000000D+00  0.000000D+00  0.348065D+00
      7  0.000000D+00  0.000000D+00  0.000000D+00  0.000000D+00  0.000000D+00
      8  0.000000D+00  0.000000D+00  0.000000D+00  0.000000D+00  0.167490D+00
                6             7             8 
      6  0.548859D+00
      7  0.000000D+00  0.597367D+00
      8 -0.201668D-01  0.000000D+00  0.589218D+00
 Fe from l501 after NEO contribution:          0:
                1             2             3             4             5 
      1 -0.110114D+02
      2 -0.296868D+01 -0.159404D+01
      3  0.000000D+00  0.000000D+00 -0.317311D+00
      4  0.000000D+00  0.000000D+00  0.000000D+00 -0.620519D-01
      5 -0.860394D-02 -0.163590D+00  0.000000D+00  0.000000D+00 -0.536811D+00
      6 -0.329332D-03 -0.802984D+00  0.000000D+00  0.000000D+00 -0.134455D+01
      7 -0.437208D+00 -0.887751D+00  0.000000D+00  0.000000D+00 -0.996989D+00
      8  0.000000D+00  0.000000D+00 -0.259097D+00  0.000000D+00  0.000000D+00
      9  0.000000D+00  0.000000D+00  0.000000D+00 -0.365737D+00  0.000000D+00
     10  0.728507D+00  0.652008D+00  0.000000D+00  0.000000D+00  0.435413D+00
     11 -0.774694D+00 -0.727957D+00 -0.353924D+00  0.000000D+00  0.178875D+00
     12 -0.774694D+00 -0.727957D+00  0.353924D+00  0.000000D+00  0.178875D+00
                6             7             8             9            10 
      6 -0.202235D+02
      7 -0.515849D+01 -0.243573D+01
      8  0.000000D+00  0.000000D+00 -0.375556D+00
      9  0.000000D+00  0.000000D+00  0.000000D+00 -0.136701D+00
     10  0.273615D-01  0.183914D+00  0.000000D+00  0.000000D+00 -0.454943D+00
     11 -0.112928D+00 -0.195839D+00 -0.513939D-01  0.000000D+00  0.177063D+00
     12 -0.112928D+00 -0.195839D+00  0.513939D-01  0.000000D+00  0.177063D+00
               11            12 
     11 -0.377473D+00
     12 -0.223579D+00 -0.377473D+00
 Classical nuclear potential =     20.82008698701639     
 Quantum-classical nuclear potential =     9.691065355914112     
 Quantum nuclear potential =    0.2663120495937724     
 Pure electronic energy =   -130.7670527072931     
 Electron-quantum-nuclear potential =    -12.14911133067328     
 Quantum-nuclear-electron potential =    -12.14911133067328     
 ENTER STMDIS
 NSAVEDSTART                        9
 IOB                   199989
 DIIS: error= 1.37D-10 at cycle  16 NSaved=  10.
 B matrix at iteration         16
                 1             2             3             4             5 
      1   0.000000D+00 -0.100000D+01 -0.100000D+01 -0.100000D+01 -0.100000D+01
      2  -0.100000D+01  0.736286D-03  0.189200D-03  0.362538D-04  0.263933D-05
      3  -0.100000D+01  0.189200D-03  0.102103D-03  0.934732D-05  0.379000D-05
      4  -0.100000D+01  0.362538D-04  0.934732D-05  0.537508D-05  0.271962D-06
      5  -0.100000D+01  0.263933D-05  0.379000D-05  0.271962D-06  0.216635D-06
      6  -0.100000D+01  0.159084D-06  0.562181D-07  0.183331D-07  0.447699D-08
      7  -0.100000D+01 -0.490115D-07  0.118432D-07 -0.406131D-08  0.282053D-08
      8  -0.100000D+01 -0.276523D-07  0.284188D-07 -0.110803D-07  0.203583D-08
      9  -0.100000D+01  0.194377D-09 -0.102305D-09  0.563143D-10 -0.759532D-11
     10  -0.100000D+01  0.322367D-10  0.544087D-10 -0.431026D-11  0.259356D-11
     11  -0.100000D+01  0.543240D-12 -0.264334D-11  0.463508D-12 -0.145067D-12
                 6             7             8             9            10 
      1  -0.100000D+01 -0.100000D+01 -0.100000D+01 -0.100000D+01 -0.100000D+01
      2   0.159084D-06 -0.490115D-07 -0.276523D-07  0.194377D-09  0.322367D-10
      3   0.562181D-07  0.118432D-07  0.284188D-07 -0.102305D-09  0.544087D-10
      4   0.183331D-07 -0.406131D-08 -0.110803D-07  0.563143D-10 -0.431026D-11
      5   0.447699D-08  0.282053D-08  0.203583D-08 -0.759532D-11  0.259356D-11
      6   0.226001D-08  0.193154D-08  0.319501D-09  0.612651D-13  0.574394D-13
      7   0.193154D-08  0.189738D-08  0.362709D-09 -0.144922D-12  0.574830D-13
      8   0.319501D-09  0.362709D-09  0.121743D-09 -0.241839D-12  0.502806D-13
      9   0.612651D-13 -0.144922D-12 -0.241839D-12  0.158404D-14 -0.157856D-15
     10   0.574394D-13  0.574830D-13  0.502806D-13 -0.157856D-15  0.586873D-16
     11  -0.364997D-14 -0.487262D-14 -0.357107D-14  0.143639D-16 -0.312552D-17
                11 
      1  -0.100000D+01
      2   0.543240D-12
      3  -0.264334D-11
      4   0.463508D-12
      5  -0.145067D-12
      6  -0.364997D-14
      7  -0.487262D-14
      8  -0.357107D-14
      9   0.143639D-16
     10  -0.312552D-17
     11   0.226333D-18
 NSaved=10 IEnMin= 1 EnMin=  0.00000000000000     IErMin=10 ErrMin= 1.37D-10
 ErrMax= 1.37D-10  0.00D+00 EMaxC= 1.00D+00 BMatC= 2.26D-19 BMatP= 5.87D-17
 IDIUse=1 WtCom= 1.00D+00 WtEn= 0.00D+00
 Inv2:  IOpt= 1 Iter= 1 AM= 5.83D+04 Conv= 1.00D-12.
 Inv2:  IOpt= 1 Iter= 2 AM= 3.70D-10 Conv= 1.00D-12.
 Inv2:  IOpt= 1 Iter= 3 AM= 2.02D-23 Conv= 1.00D-12.
 Coeff-Com: -0.232D-07 0.162D-06-0.418D-06-0.172D-06 0.132D-04-0.738D-05
 Coeff-Com: -0.137D-04 0.639D-02-0.796D-01 0.107D+01
 Coeff-En:   0.000D+00 0.000D+00 0.000D+00 0.000D+00 0.000D+00 0.000D+00
 Coeff-En:   0.000D+00 0.000D+00 0.000D+00 0.000D+00
 Coeff:     -0.232D-07 0.162D-06-0.418D-06-0.172D-06 0.132D-04-0.738D-05
 Coeff:     -0.137D-04 0.639D-02-0.796D-01 0.107D+01
 MO Fock:
                1             2             3             4             5 
      1 -0.202321D+02
      2  0.000000D+00 -0.110179D+02
      3  0.000000D+00  0.000000D+00 -0.127827D+01
      4  0.000000D+00  0.000000D+00  0.000000D+00 -0.732037D+00
      5  0.000000D+00  0.000000D+00  0.000000D+00  0.000000D+00 -0.562243D+00
      6  0.000000D+00  0.000000D+00  0.000000D+00  0.000000D+00  0.000000D+00
      7  0.000000D+00  0.000000D+00  0.000000D+00  0.000000D+00  0.000000D+00
      8  0.000000D+00  0.000000D+00  0.000000D+00  0.000000D+00  0.000000D+00
      9  0.000000D+00  0.000000D+00  0.000000D+00  0.000000D+00  0.000000D+00
     10  0.000000D+00  0.000000D+00  0.000000D+00  0.000000D+00  0.000000D+00
     11  0.000000D+00  0.000000D+00  0.000000D+00  0.000000D+00  0.000000D+00
     12  0.000000D+00  0.000000D+00  0.000000D+00  0.000000D+00  0.000000D+00
                6             7             8             9            10 
      6 -0.479177D+00
      7  0.000000D+00 -0.387269D+00
      8  0.000000D+00  0.000000D+00 -0.281387D+00
      9  0.000000D+00  0.000000D+00  0.000000D+00  0.338021D+00
     10  0.000000D+00  0.000000D+00  0.000000D+00  0.000000D+00  0.759865D+00
     11  0.000000D+00  0.000000D+00  0.000000D+00  0.000000D+00  0.000000D+00
     12  0.000000D+00  0.000000D+00  0.000000D+00  0.000000D+00  0.000000D+00
               11            12 
     11  0.880785D+00
     12  0.000000D+00  0.967146D+00
 MO Fock:
                1             2             3             4             5 
      1 -0.962711D+00
      2  0.000000D+00 -0.962711D+00
      3  0.000000D+00  0.000000D+00  0.597167D+00
      4  0.000000D+00  0.000000D+00  0.000000D+00  0.597167D+00
      5  0.000000D+00  0.000000D+00  0.000000D+00  0.000000D+00  0.597367D+00
      6  0.000000D+00  0.000000D+00  0.000000D+00  0.000000D+00  0.000000D+00
      7  0.000000D+00  0.000000D+00  0.000000D+00  0.000000D+00  0.000000D+00
      8  0.000000D+00  0.000000D+00  0.000000D+00  0.000000D+00  0.000000D+00
                6             7             8 
      6  0.597367D+00
      7  0.000000D+00  0.640154D+00
      8  0.000000D+00  0.000000D+00  0.640154D+00
 Has Electronic Subsystem Converged:   T
 Has Protonic Subsystem Converged:   T
 Simultaneous Optimization Iteration #                       16
 The Energy for This Iteration is:    -112.1386996454421     
 TOTAL ENERGY HAS CONVERGED!!!
 NEO-SCF Converged After Iteration #                       16
 E= -112.138699645442    
 Elec Eigen 
                 1             2 
      1  -0.202321D+02  0.000000D+00
      2  -0.110179D+02  0.000000D+00
      3  -0.127827D+01  0.000000D+00
      4  -0.732037D+00  0.602692D+03
      5  -0.562243D+00  0.000000D+00
      6  -0.479177D+00  0.000000D+00
      7  -0.387269D+00  0.109781D+03
      8  -0.281387D+00  0.000000D+00
      9   0.338021D+00  0.000000D+00
     10   0.759865D+00  0.297110D+02
     11   0.880785D+00  0.000000D+00
     12   0.967146D+00  0.000000D+00
 Prot Eigen 
                 1             2 
      1  -0.962711D+00  0.000000D+00
      2  -0.962711D+00  0.000000D+00
      3   0.597167D+00  0.000000D+00
      4   0.597167D+00  0.000000D+00
      5   0.597367D+00  0.000000D+00
      6   0.597367D+00  0.000000D+00
      7   0.640154D+00  0.000000D+00
      8   0.640154D+00  0.000000D+00
 Leave Link  502 at Tue Apr 19 10:40:46 2022, MaxMem= 13421772800 cpu:              40.7 elap:               2.3
 (Enter /home/software/gaussian/gdv/j19/gdv/l601.exe)
 Copying SCF densities to generalized density rwf, IOpCl=** IROHF=0.
 Alpha  occ. eigenvalues --  -20.23207 -11.01789  -1.27827  -0.73204  -0.56224
 Alpha  occ. eigenvalues --   -0.47918  -0.38727  -0.28139
 Alpha virt. eigenvalues --    0.33802   0.75987   0.88078   0.96715
 Nuclear orbitals not supported in not supported in RdDen.
 Error termination via Lnk1e in /home/software/gaussian/gdv/j19/gdv/l601.exe at Tue Apr 19 10:40:47 2022.
 Job cpu time:       0 days  0 hours  0 minutes 59.1 seconds.
 Elapsed time:       0 days  0 hours  0 minutes  3.8 seconds.
 File lengths (MBytes):  RWF=      6 Int=      0 D2E=      0 Chk=      1 Scr=      1
